#converted from POSCAR

72           atoms
2            atom types

  0.000000000000   9.141836000000 xlo xhi
  0.000000000000   8.028163000000 ylo yhi
  0.000000000000  15.035862000000 zlo zhi
 -0.183908000000   0.441346000000  -0.187027000000 xy xz yz

Masses

1 6.941
2 28.086

Atoms # atomic

           1     1    -0.001291657716000     0.002162344311000     0.010104099264000
           2     1     4.568714347458000    -0.003326263862000    -0.000436039998000
           3     1     0.136629924266000     3.926023317367000     7.531147522697999
           4     1     4.704893251492000     3.919667092510999     7.521299033088000
           5     1     2.197717544660000     4.015688226766000     0.001202868960000
           6     1     6.767490526926000     4.012242639678000     0.010359708918000
           7     1     2.505055054110000    -0.093558288494000     7.517013812418000
           8     1     7.069463721000000    -0.100856856845000     7.509992064864000
           9     1     2.417857467328000     0.900902985667000     5.351263285800000
          10     1     6.989079176311999     0.900353358039000     5.350270918908000
          11     1     2.397428378312000     6.933513502946999     9.690402556932000
          12     1     6.987424073993999     6.944840305805000     9.690477736242000
          13     1     2.227861213464000     4.954390494435000     2.175508801056000
          14     1     6.803084999824000     4.958437604671000     2.167690152816000
          15     1     2.577926091488000     2.897634005015000    12.874366622327999
          16     1     7.167366981643999     2.892686089168000    12.863600945136000
          17     1     2.284756768938000     1.863056216291000     1.543145552922000
          18     1     6.856087291082000     1.844738342735000     1.553279723910000
          19     1     2.550788182092000     5.989100801314000    13.499948696700001
          20     1     7.103013799134000     5.983448067422999    13.498730791878000
          21     1     2.329302634646000     5.808881631954999     5.970755836062000
          22     1     6.901692959490000     5.806330785517999     5.985430837374000
          23     1     2.501364638626000     2.037458576980000     9.069466563917999
          24     1     7.082126778886000     2.018230691496000     9.063692792910000
          25     1     2.320832456864000     3.279150772370000     3.872546401548000
          26     1     6.896725186039999     3.278893039058000     3.876485797392000
          27     1     2.507601551656000     4.571027318419000    11.148279736452000
          28     1     7.087000861818001     4.564964265180000    11.161977406734001
          29     1     2.219833970712000     7.285122737122999     3.638347815036000
          30     1     6.800364686198001     7.295608972223000     3.640167154338000
          31     1     2.601134789768000     0.540968602452000    11.400731859432000
          32     1     7.178906802518001     0.545754055612000    11.387124404322000
          33     1     0.373548675222000     2.425309692057000    14.850905861537999
          34     1     4.951805680786000     2.436930118360000    14.836411290570000
          35     1    -0.121772296884000     5.411923942606998     0.181783571580000
          36     1     4.442448886052000     5.405484925835000     0.184399811568000
          37     1     0.072643736834000     6.544555621175999     7.703278070873999
          38     1     4.644318709314001     6.543260496551000     7.702195488810000
          39     1     0.181447187474000     1.302224523471000     7.333846941534000
          40     1     4.752495248326000     1.306493523933000     7.339169636682001
          41     1     0.059542425538000     0.897553922929000     2.851024973130000
          42     1     4.629785689195999     0.890335178166000     2.847912549696000
          43     1     0.192199791406000     6.953386334363999    12.184686668249999
          44     1     4.757760974609999     6.941269218018999    12.184897170318001
          45     1     0.030941677194000     4.890622618276999     4.675867400622000
          46     1     4.592692275478000     4.885273986395999     4.667627748246000
          47     1     0.231266961140000     2.951929115820000    10.361062145580000
          48     1     4.808332158134000     2.950201461520000    10.357318215942000
          49     1     0.101887677064000     2.323035605864000     5.018249014224000
          50     1     4.665667264086000     2.324233864501000     5.026473630738000
          51     1     0.169743669220000     5.530739888159000    10.018003918188001
          52     1     4.734731668952000     5.522267524766999    10.011117493392000
          53     1    -0.066543852610000     6.377284439963000     2.491246867194000
          54     1     4.503687259246000     6.366603906753000     2.495366693382000
          55     1     0.328186277772000     1.487155740914000    12.531188108040000
          56     1     4.907514079984001     1.484274579530000    12.530466386663999
          57     2     2.396623781478000     3.123328003821999     6.556522947857999
          58     2     6.979214211610000     3.112865582196000     6.558597896814000
          59     2     2.424929843654000     4.718247267770000     8.472422555622000
          60     2     6.992026875938000     4.725996956512000     8.485774401078000
          61     2     2.144266081760000     7.200518361267999     0.967257002460000
          62     2     6.719010617076000     7.193894607706000     0.965362483848000
          63     2     2.685907224432000     0.641696789166000    14.085114374016001
          64     2     7.251622907198001     0.627841852965000    14.068199029265999
          65     2    -0.012054946102000     3.519973415432000     2.313071902494000
          66     2     4.550869241514000     3.529081527913000     2.318544956262000
          67     2     0.274813530194000     4.328473108649000    12.729496091958000
          68     2     4.832007713224000     4.314835981129000    12.733149806424001
          69     2    -0.024543077862000     7.491513435672999     5.204558380266000
          70     2     4.545926199880000     7.507395489449999     5.208242166455999
          71     2     0.271427092332000     0.341142303807000     9.826988327340000
          72     2     4.860677010921999     0.333390361796000     9.822853465289999
