LAMMPS (28 Mar 2023 - Development)
units           metal
boundary        p p p
atom_style      atomic
processors      * * *
neighbor        2.0 bin
neigh_modify    every 10 delay 0 check no
read_data       lmp.init
Reading data file ...
  triclinic box = (0 0 0) to (9.141836 8.028163 15.035862) with tilt (-0.183908 0.441346 -0.187027)
  2 by 2 by 2 MPI processor grid
  reading atoms ...
  72 atoms
  read_data CPU = 0.029 seconds
pair_style      pwmatmlff
pair_coeff      * * 5 4 1.ff 2.ff 3.ff 4.ff 3 14 0.12 0.25
velocity        all create 1200 206952 dist gaussian
timestep        0.001
fix             1 all npt temp 1200 1200 0.025 tri 1.0 1.0 0.1
thermo_style    custom step pe ke etotal temp vol press
thermo          1
dump            1 all custom 1 traj id type x y z  vx vy vz fx fy fz
run             617
Generated 0 of 1 mixed pair_coeff terms from geometric mixing rule
Neighbor list info ...
  update: every = 10 steps, delay = 0 steps, check = no
  max neighbors/atom: 2000, page size: 100000
  master list distance cutoff = 8
  ghost atom cutoff = 8
  binsize = 4, bins = 3 3 4
  1 neighbor lists, perpetual/occasional/extra = 1 0 0
  (1) pair pwmatmlff, perpetual
      attributes: full, newton on
      pair build: full/bin/atomonly
      stencil: full/bin/3d
      bin: standard
Per MPI rank memory allocation (min/avg/max) = 3.739 | 3.739 | 3.739 Mbytes
   Step         PotEng         KinEng         TotEng          Temp          Volume         Press     
         0  -12577.473      11.012964     -12566.46       1200           1103.5142      6709.6046    
         1  -12577.456      10.995279     -12566.461      1198.073       1103.6178      6793.3347    
         2  -12577.38       10.914893     -12566.465      1189.3139      1103.9312      6965.152     
         3  -12577.245      10.773301     -12566.472      1173.8857      1104.4602      7219.4795    
         4  -12577.053      10.573302     -12566.48       1152.0932      1105.2136      7548.4332    
         5  -12576.809      10.31893      -12566.49       1124.3763      1106.2026      7942.6028    
         6  -12576.515      10.015391     -12566.5        1091.3019      1107.4413      8393.9949    
         7  -12576.179      9.6689652     -12566.51       1053.5545      1108.9458      8895.1991    
         8  -12575.807      9.2868754     -12566.52       1011.9211      1110.7344      9433.5684    
         9  -12575.405      8.8770797     -12566.528      967.26869      1112.8273      9985.086     
        10  -12574.982      8.4480228     -12566.534      920.51759      1115.2459      10509.202    
        11  -12574.546      8.0083825     -12566.538      872.61328      1118.0114      10947.405    
        12  -12574.105      7.5668326     -12566.539      824.50091      1121.1433      11228.41     
        13  -12573.668      7.1318207     -12566.536      777.10093      1124.657       11277.357    
        14  -12573.24       6.7113625     -12566.529      731.28676      1128.5612      11029.266    
        15  -12572.829      6.3128771     -12566.516      687.8668       1132.8557      10440.411    
        16  -12572.441      5.9430545     -12566.497      647.57         1137.5294      9489.5891    
        17  -12572.078      5.6077223     -12566.47       611.03138      1142.5591      8175.5005    
        18  -12571.745      5.3117104     -12566.433      578.77718      1147.9089      6520.6586    
        19  -12571.444      5.0587294     -12566.385      551.21174      1153.5301      4577.2907    
        20  -12571.176      4.8512902     -12566.324      528.60865      1159.3626      2426.5186    
        21  -12570.941      4.690661      -12566.25       511.10609      1165.3364      162.63056    
        22  -12570.74       4.5768609     -12566.163      498.70616      1171.3754     -2125.0351    
        23  -12570.573      4.5087085     -12566.064      491.2801       1177.3994     -4362.0053    
        24  -12570.439      4.4839262     -12565.955      488.57976      1183.3274     -6494.3531    
        25  -12570.337      4.4992961     -12565.837      490.2545       1189.0797     -8487.9986    
        26  -12570.265      4.5508759     -12565.714      495.87477      1194.5795     -10321.251    
        27  -12570.222      4.6342823     -12565.588      504.96293      1199.7539     -11976.201    
        28  -12570.205      4.7449781     -12565.46       517.02462      1204.5356     -13438.947    
        29  -12570.213      4.8784533     -12565.334      531.56841      1208.8635     -14703.427    
        30  -12570.241      5.0303098     -12565.211      548.11508      1212.6835     -15767.394    
        31  -12570.287      5.1963136     -12565.091      566.20326      1215.9491     -16628.657    
        32  -12570.348      5.3724133     -12564.976      585.39152      1218.6215     -17284.997    
        33  -12570.421      5.5547303     -12564.866      605.25723      1220.6703     -17734.635    
        34  -12570.5        5.7395475     -12564.761      625.39538      1222.0735     -17975.684    
        35  -12570.584      5.9233085     -12564.661      645.41844      1222.8178     -18006.359    
        36  -12570.669      6.1026162     -12564.566      664.95625      1222.8985     -17825.149    
        37  -12570.75       6.2742214     -12564.475      683.65477      1222.3199     -17431.251    
        38  -12570.823      6.4350166     -12564.388      701.17542      1221.0949     -16823.435    
        39  -12570.886      6.5820482     -12564.304      717.19635      1219.2454     -16001.411    
        40  -12570.934      6.7125496     -12564.221      731.4161       1216.8016     -14965.932    
        41  -12570.963      6.8239803     -12564.139      743.55787      1213.8023     -13717.66     
        42  -12570.97       6.9140932     -12564.056      753.3768       1210.2944     -12260.966    
        43  -12570.952      6.981073      -12563.971      760.67509      1206.3326     -10607.034    
        44  -12570.906      7.0236594     -12563.882      765.3154       1201.9784     -8769.7833    
        45  -12570.831      7.0412262     -12563.789      767.22953      1197.2998     -6766.1271    
        46  -12570.725      7.0338597     -12563.691      766.42685      1192.3697     -4615.7136    
        47  -12570.589      7.0024081     -12563.586      762.99981      1187.2657     -2341.5891    
        48  -12570.424      6.9485502     -12563.476      757.13132      1182.0681      25.793381    
        49  -12570.233      6.8749126     -12563.358      749.10759      1176.8593      2444.5451    
        50  -12570.02       6.7851553     -12563.235      739.32741      1171.7219      4866.5867    
        51  -12569.791      6.6839482     -12563.107      728.29962      1166.737       7242.8928    
        52  -12569.552      6.5768472     -12562.975      716.62963      1161.9829      9524.6965    
        53  -12569.311      6.4700803     -12562.841      704.99605      1157.5331      11667.461    
        54  -12569.077      6.3702618     -12562.707      694.11958      1153.4561      13631.934    
        55  -12568.858      6.2840707     -12562.574      684.72798      1149.8134      15384.673    
        56  -12568.663      6.2179153     -12562.445      677.51952      1146.6599      16897.289    
        57  -12568.498      6.1776038     -12562.32       673.12708      1144.0429      18146.409    
        58  -12568.369      6.1680303     -12562.201      672.08393      1142.0021      19114.433    
        59  -12568.281      6.1928933     -12562.088      674.79306      1140.5694      19789.586    
        60  -12568.236      6.2544612     -12561.982      681.50166      1139.7687      20167.2      
        61  -12568.235      6.3534291     -12561.881      692.28544      1139.6162      20245.898    
        62  -12568.276      6.4888891     -12561.787      707.0455       1140.1204      20027.903    
        63  -12568.355      6.6583899     -12561.696      725.51473      1141.2818      19516.74     
        64  -12568.466      6.8580794     -12561.608      747.27339      1143.0931      18715.907    
        65  -12568.604      7.0829119     -12561.521      771.77171      1145.5386      17628.747    
        66  -12568.759      7.3269019     -12561.432      798.35747      1148.5939      16259.362    
        67  -12568.923      7.5834191     -12561.34       826.30822      1152.2253      14620.116    
        68  -12569.087      7.8455086     -12561.241      854.86614      1156.3895      12735.241    
        69  -12569.24       8.1062013     -12561.134      883.27187      1161.0338      10640.719    
        70  -12569.375      8.3588266     -12561.017      910.79855      1166.0962      8384.2134    
        71  -12569.484      8.597316      -12560.887      936.78495      1171.5066      6021.112     
        72  -12569.561      8.8164766     -12560.744      960.66523      1177.1883      3611.871     
        73  -12569.601      9.0122308     -12560.588      981.99509      1183.0597      1223.1112    
        74  -12569.602      9.1817494     -12560.42       1000.4663      1189.0368     -1081.5499    
        75  -12569.563      9.3233928     -12560.24       1015.9001      1195.0351     -3256.7476    
        76  -12569.486      9.43655       -12560.05       1028.23        1200.9725     -5275.8313    
        77  -12569.374      9.5215293     -12559.852      1037.4895      1206.7698     -7119.1306    
        78  -12569.229      9.5795074     -12559.649      1043.807       1212.3528     -8768.3113    
        79  -12569.056      9.6124452     -12559.443      1047.396       1217.6531     -10207.822    
        80  -12568.86       9.6229258     -12559.237      1048.5379      1222.6095     -11430.548    
        81  -12568.647      9.6139623     -12559.033      1047.5613      1227.1684     -12437.965    
        82  -12568.422      9.5888289     -12558.833      1044.8227      1231.2848     -13237.988    
        83  -12568.19       9.550933      -12558.639      1040.6934      1234.9216     -13838.963    
        84  -12567.956      9.5037076     -12558.452      1035.5476      1238.05       -14248.46     
        85  -12567.724      9.4505175     -12558.274      1029.7519      1240.6492     -14473.766    
        86  -12567.499      9.3946003     -12558.104      1023.659       1242.7063     -14521.224    
        87  -12567.284      9.3389965     -12557.945      1017.6003      1244.2159     -14399.361    
        88  -12567.08       9.2864635     -12557.794      1011.8762      1245.1797     -14117.568    
        89  -12566.892      9.2394168     -12557.652      1006.7498      1245.6065     -13687.665    
        90  -12566.719      9.1999138     -12557.519      1002.4455      1245.5112     -13122.575    
        91  -12566.563      9.1696772     -12557.394      999.15084      1244.9143     -12435.602    
        92  -12566.425      9.1501237     -12557.274      997.02025      1243.8417     -11637.975    
        93  -12566.303      9.1423608     -12557.161      996.17438      1242.3236     -10736.781    
        94  -12566.198      9.1471628     -12557.051      996.69762      1240.3947     -9737.4661    
        95  -12566.109      9.1649641     -12556.944      998.63729      1238.0933     -8648.09      
        96  -12566.034      9.1958794     -12556.838      1002.0059      1235.4615     -7479.6578    
        97  -12565.972      9.2397197     -12556.732      1006.7829      1232.5443     -6243.7465    
        98  -12565.921      9.2959945     -12556.625      1012.9147      1229.3891     -4951.504     
        99  -12565.879      9.3639172     -12556.515      1020.3157      1226.0455     -3612.2206    
       100  -12565.843      9.4424056     -12556.401      1028.868       1222.5643     -2232.8087    
       101  -12565.813      9.5301138     -12556.282      1038.4249      1218.9977     -822.57847    
       102  -12565.784      9.625494      -12556.158      1048.8178      1215.3984      604.82779    
       103  -12565.755      9.726842      -12556.028      1059.8609      1211.8194      2033.6967    
       104  -12565.725      9.8323169     -12555.892      1071.3537      1208.3131      3447.0751    
       105  -12565.69       9.9399417     -12555.75       1083.0808      1204.9307      4828.5042    
       106  -12565.649      10.047597     -12555.602      1094.8112      1201.7219      6163.2064    
       107  -12565.601      10.153019     -12555.448      1106.2982      1198.7337      7435.8239    
       108  -12565.544      10.253806     -12555.29       1117.2802      1196.0109      8631.993     
       109  -12565.476      10.347447     -12555.128      1127.4835      1193.5948      9738.7451    
       110  -12565.395      10.431428     -12554.964      1136.6344      1191.5234      10741.985    
       111  -12565.302      10.503417     -12554.799      1144.4785      1189.8312      11628.537    
       112  -12565.196      10.561475     -12554.634      1150.8046      1188.5486      12390.33     
       113  -12565.075      10.604321     -12554.471      1155.4732      1187.7018      13022.333    
       114  -12564.942      10.631701     -12554.311      1158.4566      1187.3134      13520.993    
       115  -12564.799      10.644825     -12554.154      1159.8866      1187.4018      13879.224    
       116  -12564.65       10.646757     -12554.003      1160.0971      1187.9818      14077.822    
       117  -12564.501      10.642446     -12553.858      1159.6274      1189.0634      14088.34     
       118  -12564.358      10.638096     -12553.72       1159.1534      1190.6514      13892.877    
       119  -12564.229      10.639969     -12553.589      1159.3575      1192.7444      13492.636    
       120  -12564.119      10.653149     -12553.465      1160.7936      1195.3353      12899.336    
       121  -12564.029      10.680652     -12553.349      1163.7904      1198.4107      12123.911    
       122  -12563.961      10.722992     -12553.238      1168.4039      1201.9517      11177.434    
       123  -12563.912      10.778194     -12553.133      1174.4188      1205.9338      10072.531    
       124  -12563.875      10.842276     -12553.033      1181.4013      1210.3267      8830.3896    
       125  -12563.847      10.910241     -12552.936      1188.807       1215.0949      7482.2449    
       126  -12563.82       10.977329     -12552.842      1196.1171      1220.1982      6067.1573    
       127  -12563.79       11.04001      -12552.75       1202.9469      1225.5928      4621.0358    
       128  -12563.755      11.096301     -12552.659      1209.0805      1231.2325      3168.7632    
       129  -12563.714      11.145533     -12552.568      1214.445       1237.0686      1727.6313    
       130  -12563.666      11.187954     -12552.478      1219.0673      1243.0513      307.81492    
       131  -12563.613      11.22441      -12552.388      1223.0396      1249.1294     -1080.9078    
       132  -12563.555      11.256171     -12552.298      1226.5004      1255.2504     -2427.5924    
       133  -12563.493      11.28481      -12552.208      1229.621       1261.3616     -3724.0173    
       134  -12563.43       11.312062     -12552.118      1232.5904      1267.4097     -4963.6481    
       135  -12563.368      11.33965      -12552.028      1235.5965      1273.3418     -6145.036     
       136  -12563.307      11.369174     -12551.938      1238.8135      1279.1054     -7265.7297    
       137  -12563.25       11.402117     -12551.848      1242.403       1284.6485     -8314.851     
       138  -12563.198      11.439907     -12551.759      1246.5208      1289.9206     -9276.2431    
       139  -12563.154      11.483884     -12551.67       1251.3126      1294.8736     -10138.902    
       140  -12563.117      11.535165     -12551.582      1256.9003      1299.4625     -10896.169    
       141  -12563.091      11.59453      -12551.496      1263.3689      1303.646      -11537.493    
       142  -12563.074      11.662362     -12551.412      1270.76        1307.3876     -12056.208    
       143  -12563.068      11.738673     -12551.329      1279.075       1310.6557     -12455.864    
       144  -12563.072      11.82317      -12551.249      1288.282       1313.4245     -12744.135    
       145  -12563.087      11.915201     -12551.171      1298.31        1315.6733     -12923.878    
       146  -12563.11       12.013611     -12551.096      1309.0329      1317.3872     -12993.756    
       147  -12563.14       12.116671     -12551.023      1320.2626      1318.5567     -12947.512    
       148  -12563.176      12.222201     -12550.953      1331.7614      1319.1787     -12776.79     
       149  -12563.214      12.327704     -12550.886      1343.2573      1319.2569     -12475.673    
       150  -12563.252      12.430418     -12550.822      1354.4493      1318.8017     -12041.712    
       151  -12563.288      12.527345     -12550.761      1365.0107      1317.8306     -11477.947    
       152  -12563.318      12.615372     -12550.703      1374.6024      1316.3679     -10795.156    
       153  -12563.34       12.691508     -12550.648      1382.8983      1314.4439     -10005.045    
       154  -12563.351      12.753083     -12550.597      1389.6077      1312.0946     -9113.621     
       155  -12563.348      12.797874     -12550.55       1394.4882      1309.3607     -8125.9648    
       156  -12563.331      12.824177     -12550.507      1397.3543      1306.2872     -7049.9527    
       157  -12563.299      12.830915     -12550.468      1398.0884      1302.923      -5895.5132    
       158  -12563.251      12.817778     -12550.434      1396.6569      1299.32       -4675.0947    
       159  -12563.189      12.785355     -12550.403      1393.1241      1295.5324     -3401.9217    
       160  -12563.113      12.735121     -12550.378      1387.6504      1291.6156     -2087.7687    
       161  -12563.026      12.669249     -12550.357      1380.4729      1287.6258     -744.64172    
       162  -12562.931      12.590317     -12550.341      1371.8723      1283.6194      613.74372    
       163  -12562.831      12.500968     -12550.33       1362.1366      1279.652       1971.8665    
       164  -12562.728      12.403657     -12550.324      1351.5333      1275.7783      3309.6011    
       165  -12562.625      12.30047      -12550.325      1340.2898      1272.0508      4605.2714    
       166  -12562.524      12.193009     -12550.331      1328.5806      1268.5194      5838.1918    
       167  -12562.427      12.082367     -12550.344      1316.5248      1265.2304      6987.4071    
       168  -12562.333      11.969223     -12550.364      1304.1964      1262.2267      8032.6172    
       169  -12562.246      11.853976     -12550.392      1291.6387      1259.5462      8954.844     
       170  -12562.164      11.736892     -12550.427      1278.8809      1257.2224      9739.3308    
       171  -12562.089      11.618269     -12550.471      1265.9555      1255.2832      10375.637    
       172  -12562.021      11.49858      -12550.523      1252.9139      1253.7515      10854.588    
       173  -12561.961      11.378602     -12550.582      1239.8408      1252.6448      11170.507    
       174  -12561.91       11.259567     -12550.65       1226.8705      1251.975       11319.71     
       175  -12561.868      11.143237     -12550.725      1214.1949      1251.7486      11303.015    
       176  -12561.838      11.031863     -12550.806      1202.0592      1251.9666      11123.991    
       177  -12561.821      10.928021     -12550.893      1190.7444      1252.6247      10788.144    
       178  -12561.818      10.834367     -12550.984      1180.5396      1253.7133      10301.986    
       179  -12561.832      10.753381     -12551.078      1171.7152      1255.2177      9672.9535    
       180  -12561.861      10.687153     -12551.174      1164.4987      1257.1178      8907.8464    
       181  -12561.907      10.637232     -12551.27       1159.0593      1259.3884      8015.387     
       182  -12561.969      10.604598     -12551.365      1155.5033      1261.9991      7009.1911    
       183  -12562.046      10.589648     -12551.457      1153.8744      1264.9145      5904.6122    
       184  -12562.137      10.592195     -12551.545      1154.1519      1268.0944      4717.1604    
       185  -12562.239      10.611486     -12551.627      1156.2539      1271.4943      3463.5593    
       186  -12562.35       10.646283     -12551.704      1160.0455      1275.0656      2162.4035    
       187  -12562.468      10.694956     -12551.773      1165.349       1278.7565      834.5585     
       188  -12562.591      10.755601     -12551.835      1171.9571      1282.5125     -499.95234    
       189  -12562.716      10.826167     -12551.89       1179.6461      1286.2774     -1823.2941    
       190  -12562.841      10.904613     -12551.937      1188.1937      1289.9941     -3117.107     
       191  -12562.966      10.989045     -12551.977      1197.3937      1293.6055     -4360.4035    
       192  -12563.088      11.077759     -12552.011      1207.0601      1297.0558     -5533.1812    
       193  -12563.209      11.169174     -12552.04       1217.021       1300.2913     -6622.2943    
       194  -12563.327      11.261756     -12552.065      1227.109       1303.2617     -7621.4663    
       195  -12563.443      11.353956     -12552.089      1237.1553      1305.9203     -8528.6928    
       196  -12563.556      11.444207     -12552.112      1246.9893      1308.2249     -9339.3954    
       197  -12563.667      11.530987     -12552.136      1256.445       1310.1375     -10041.967    
       198  -12563.776      11.612865     -12552.163      1265.3667      1311.6259     -10627.148    
       199  -12563.882      11.688469     -12552.194      1273.6046      1312.6636     -11092.992    
       200  -12563.986      11.756413     -12552.23       1281.008       1313.2304     -11442.997    
       201  -12564.087      11.815309     -12552.272      1287.4255      1313.3121     -11674.236    
       202  -12564.185      11.863781     -12552.322      1292.7071      1312.9007     -11777.202    
       203  -12564.279      11.900545     -12552.379      1296.713       1311.9952     -11753.946    
       204  -12564.368      11.924492     -12552.443      1299.3224      1310.6005     -11610.546    
       205  -12564.451      11.934618     -12552.516      1300.4257      1308.728      -11343.821    
       206  -12564.527      11.929949     -12552.597      1299.9169      1306.395      -10950.712    
       207  -12564.594      11.909642     -12552.684      1297.7043      1303.6249     -10430.154    
       208  -12564.652      11.873108     -12552.779      1293.7234      1300.4469     -9784.8501    
       209  -12564.698      11.820081     -12552.878      1287.9455      1296.8956     -9019.4354    
       210  -12564.732      11.750618     -12552.982      1280.3765      1293.011      -8140.6284    
       211  -12564.754      11.665097     -12553.089      1271.058       1288.837      -7156.2503    
       212  -12564.761      11.564284     -12553.197      1260.0732      1284.4218     -6072.0942    
       213  -12564.755      11.449375     -12553.306      1247.5523      1279.8168     -4892.7341    
       214  -12564.735      11.322006     -12553.413      1233.6739      1275.076      -3624.3634    
       215  -12564.701      11.184199     -12553.517      1218.6581      1270.2561     -2276.4688    
       216  -12564.655      11.038259     -12553.617      1202.7561      1265.415      -862.88268    
       217  -12564.598      10.886683     -12553.711      1186.2401      1260.6117      597.21934    
       218  -12564.531      10.73211      -12553.799      1169.3974      1255.9053      2080.6342    
       219  -12564.457      10.577293     -12553.88       1152.5282      1251.3533      3561.956     
       220  -12564.379      10.425107     -12553.953      1135.9456      1247.0115      5013.1009    
       221  -12564.298      10.278527     -12554.02       1119.9739      1242.9323      6408.5861    
       222  -12564.219      10.140563     -12554.079      1104.941       1239.1642      7724.2873    
       223  -12564.145      10.014169     -12554.131      1091.1688      1235.751       8935.8384    
       224  -12564.08       9.9021579     -12554.178      1078.9638      1232.7312      10018.451    
       225  -12564.027      9.8070948     -12554.22       1068.6055      1230.1374      10950.648    
       226  -12563.988      9.7311685     -12554.257      1060.3323      1227.9958      11716.185    
       227  -12563.968      9.676053      -12554.292      1054.3268      1226.3259      12304.916    
       228  -12563.966      9.6427596     -12554.324      1050.6991      1225.141       12712.231    
       229  -12563.986      9.6315124     -12554.354      1049.4736      1224.4475      12937.533    
       230  -12564.025      9.6417115     -12554.384      1050.5849      1224.246       12982.03     
       231  -12564.084      9.6719918     -12554.412      1053.8843      1224.5309      12851.387    
       232  -12564.161      9.7203614     -12554.441      1059.1548      1225.2911      12556.292    
       233  -12564.253      9.7844249     -12554.468      1066.1353      1226.5102      12109.411    
       234  -12564.357      9.8616078     -12554.495      1074.5453      1228.1672      11523.232    
       235  -12564.47       9.9493004     -12554.521      1084.1005      1230.2366      10808.511    
       236  -12564.591      10.044989     -12554.546      1094.527       1232.6892      9976.6114    
       237  -12564.715      10.146398     -12554.569      1105.5768      1235.4917      9039.7973    
       238  -12564.841      10.251588     -12554.59       1117.0386      1238.6074      8013.2292    
       239  -12564.967      10.359009     -12554.608      1128.7434      1241.9968      6916.4524    
       240  -12565.091      10.467519     -12554.624      1140.5669      1245.6176      5771.7922    
       241  -12565.212      10.576378     -12554.636      1152.4285      1249.4259      4600.823     
       242  -12565.33       10.685196     -12554.645      1164.2855      1253.3768      3419.9606    
       243  -12565.445      10.79386      -12554.651      1176.1258      1257.4247      2240.521     
       244  -12565.556      10.902442     -12554.653      1187.9572      1261.5241      1069.6746    
       245  -12565.664      11.011089     -12554.653      1199.7956      1265.6293     -82.428006    
       246  -12565.771      11.119893     -12554.651      1211.6512      1269.6956     -1204.6627    
       247  -12565.875      11.228799     -12554.647      1223.5178      1273.6788     -2283.0925    
       248  -12565.979      11.337551     -12554.641      1235.3677      1277.5367     -3302.7119    
       249  -12566.081      11.445639     -12554.635      1247.1453      1281.2291     -4251.9766    
       250  -12566.182      11.552254     -12554.63       1258.7624      1284.7186     -5122.9989    
       251  -12566.282      11.656232     -12554.626      1270.092       1287.9711     -5912.2756    
       252  -12566.381      11.75598      -12554.625      1280.9609      1290.9558     -6618.6782    
       253  -12566.476      11.849443     -12554.626      1291.1448      1293.6453     -7237.5434    
       254  -12566.566      11.934148     -12554.632      1300.3745      1296.0162     -7760.3932    
       255  -12566.65       12.007314     -12554.643      1308.3468      1298.0489     -8178.9419    
       256  -12566.726      12.065922     -12554.66       1314.7328      1299.7284     -8489.5593    
       257  -12566.79       12.106792     -12554.683      1319.1862      1301.0445     -8693.3644    
       258  -12566.839      12.126734     -12554.712      1321.3592      1301.9912     -8789.8288    
       259  -12566.872      12.122741     -12554.749      1320.924       1302.5676     -8776.8478    
       260  -12566.884      12.092205     -12554.792      1317.5967      1302.777      -8654.0645    
       261  -12566.876      12.033152     -12554.842      1311.1622      1302.6276     -8425.9533    
       262  -12566.843      11.944455     -12554.899      1301.4976      1302.1319     -8100.9106    
       263  -12566.787      11.825952     -12554.961      1288.5852      1301.3063     -7685.4076    
       264  -12566.706      11.678476     -12555.027      1272.5158      1300.1709     -7183.188     
       265  -12566.601      11.503942     -12555.097      1253.4982      1298.7492     -6602.834     
       266  -12566.475      11.305437     -12555.17       1231.8686      1297.0676     -5957.943     
       267  -12566.331      11.087113     -12555.244      1208.0794      1295.155      -5256.752     
       268  -12566.172      10.85394      -12555.318      1182.6723      1293.042      -4504.8504    
       269  -12566.002      10.611447     -12555.39       1156.2497      1290.761      -3710.0388    
       270  -12565.826      10.365501     -12555.46       1129.4508      1288.3458     -2885.4455    
       271  -12565.649      10.122066     -12555.527      1102.9255      1285.8306     -2046.7465    
       272  -12565.476      9.886904      -12555.589      1077.3017      1283.25       -1209.1322    
       273  -12565.312      9.665256      -12555.647      1053.1503      1280.6379     -387.51265    
       274  -12565.161      9.4615675     -12555.699      1030.9559      1278.0269      406.71616    
       275  -12565.025      9.2793136     -12555.746      1011.0971      1275.4483      1162.6725    
       276  -12564.907      9.1209409     -12555.786      993.84042      1272.9313      1868.8377    
       277  -12564.808      8.987869      -12555.821      979.34057      1270.5028      2516.2849    
       278  -12564.73       8.8805437     -12555.849      967.64614      1268.1871      3097.0488    
       279  -12564.67       8.7985366     -12555.872      958.71044      1266.0057      3604.3285    
       280  -12564.629      8.7406746     -12555.888      952.40565      1263.9769      4032.9807    
       281  -12564.604      8.7052117     -12555.899      948.54153      1262.116       4380.0238    
       282  -12564.594      8.690035      -12555.904      946.88784      1260.4351      4645.1839    
       283  -12564.597      8.6928602     -12555.904      947.19567      1258.9432      4827.7876    
       284  -12564.609      8.7113799     -12555.898      949.21363      1257.6462      4926.4071    
       285  -12564.629      8.7433781     -12555.886      952.70023      1256.5469      4940.8254    
       286  -12564.655      8.7868445     -12555.868      957.43644      1255.645       4874.6455    
       287  -12564.685      8.8400875     -12555.845      963.23793      1254.9373      4734.5695    
       288  -12564.717      8.9018031     -12555.816      969.96262      1254.4181      4529.7891    
       289  -12564.751      8.9710916     -12555.78       977.51247      1254.0792      4270.5502    
       290  -12564.785      9.0474505     -12555.738      985.83272      1253.9105      3966.2998    
       291  -12564.82       9.1307162     -12555.689      994.90556      1253.9005      3624.6184    
       292  -12564.854      9.2209281     -12555.633      1004.7353      1254.0362      3254.8893    
       293  -12564.889      9.3181736     -12555.571      1015.3314      1254.3037      2866.4372    
       294  -12564.924      9.4224656     -12555.501      1026.6953      1254.6884      2465.9654    
       295  -12564.958      9.5336629     -12555.424      1038.8116      1255.1753      2057.5028    
       296  -12564.992      9.6514137     -12555.341      1051.6421      1255.749       1643.3774    
       297  -12565.026      9.7751066     -12555.251      1065.1199      1256.3938      1225.1172    
       298  -12565.058      9.9038169     -12555.154      1079.1445      1257.094       805.48119    
       299  -12565.088      10.036271     -12555.052      1093.5771      1257.8336      389.02625    
       300  -12565.115      10.170862     -12554.944      1108.2424      1258.5967     -16.133861    
       301  -12565.138      10.305724     -12554.833      1122.9374      1259.3675     -399.86239    
       302  -12565.156      10.438835     -12554.718      1137.4414      1260.1313     -753.96528    
       303  -12565.168      10.568082     -12554.6        1151.5245      1260.8741     -1071.168     
       304  -12565.173      10.691326     -12554.481      1164.9535      1261.5834     -1348.1574    
       305  -12565.169      10.806457     -12554.362      1177.4984      1262.2483     -1586.0717    
       306  -12565.156      10.911455     -12554.244      1188.9392      1262.8591     -1786.5295    
       307  -12565.132      11.004467     -12554.128      1199.0741      1263.4077     -1948.6867    
       308  -12565.098      11.083923     -12554.014      1207.7318      1263.8872     -2069.2242    
       309  -12565.052      11.14865      -12553.904      1214.7846      1264.2926     -2140.3732    
       310  -12564.995      11.197931     -12553.797      1220.1544      1264.6205     -2157.18      
       311  -12564.927      11.231485     -12553.696      1223.8106      1264.8699     -2120.5519    
       312  -12564.848      11.249457     -12553.599      1225.7688      1265.0417     -2035.2672    
       313  -12564.759      11.252413     -12553.507      1226.0909      1265.1388     -1909.1416    
       314  -12564.661      11.241322     -12553.42       1224.8824      1265.1657     -1748.8183    
       315  -12564.555      11.217522     -12553.337      1222.2892      1265.1283     -1556.9293    
       316  -12564.443      11.182713     -12553.26       1218.4962      1265.0338     -1334.5636    
       317  -12564.326      11.138954     -12553.187      1213.7282      1264.8905     -1084.4393    
       318  -12564.207      11.088667     -12553.118      1208.2488      1264.708      -811.53857    
       319  -12564.088      11.034573     -12553.053      1202.3546      1264.4969     -524.16721    
       320  -12563.971      10.979576     -12552.991      1196.3619      1264.2681     -231.7845     
       321  -12563.859      10.926635     -12552.933      1190.5934      1264.0332      58.265959    
       322  -12563.755      10.878668     -12552.877      1185.3667      1263.8035      343.49351    
       323  -12563.661      10.838427     -12552.823      1180.982       1263.5903      622.79641    
       324  -12563.58       10.808323     -12552.771      1177.7018      1263.4049      894.41462    
       325  -12563.512      10.790243     -12552.722      1175.7318      1263.2581      1156.879     
       326  -12563.459      10.785474     -12552.674      1175.2121      1263.1608      1410.8359    
       327  -12563.422      10.794703     -12552.627      1176.2177      1263.1236      1656.3243    
       328  -12563.4        10.817983     -12552.582      1178.7544      1263.1569      1888.822     
       329  -12563.393      10.854663     -12552.538      1182.7511      1263.2708      2098.1684    
       330  -12563.4        10.903361     -12552.496      1188.0573      1263.4747      2278.5067    
       331  -12563.418      10.96204      -12552.456      1194.4511      1263.777       2428.0541    
       332  -12563.444      11.028172     -12552.416      1201.6571      1264.1853      2549.1687    
       333  -12563.478      11.098927     -12552.379      1209.3667      1264.7059      2646.2037    
       334  -12563.514      11.171348     -12552.343      1217.2579      1265.3449      2720.9262    
       335  -12563.551      11.24252      -12552.308      1225.013       1266.1072      2771.6839    
       336  -12563.585      11.309725     -12552.276      1232.3358      1266.9972      2793.1127    
       337  -12563.616      11.370599     -12552.245      1238.9687      1268.0185      2778.8837    
       338  -12563.64       11.423266     -12552.216      1244.7075      1269.1732      2722.6936    
       339  -12563.656      11.466436     -12552.189      1249.4114      1270.4618      2619.6932    
       340  -12563.664      11.499473     -12552.165      1253.0112      1271.8835      2467.5407    
       341  -12563.664      11.522388     -12552.141      1255.5081      1273.4351      2268.6892    
       342  -12563.656      11.535723     -12552.12       1256.9611      1275.1118      2028.2313    
       343  -12563.64       11.5404       -12552.1        1257.4707      1276.907       1750.8764    
       344  -12563.619      11.537599     -12552.081      1257.1655      1278.8125      1440.528     
       345  -12563.593      11.528622     -12552.064      1256.1874      1280.8186      1097.286     
       346  -12563.563      11.514749     -12552.048      1254.6757      1282.9142      719.82786    
       347  -12563.53       11.497099     -12552.033      1252.7525      1285.0862      310.12293    
       348  -12563.496      11.476547     -12552.019      1250.5131      1287.3201     -124.92427    
       349  -12563.46       11.453722     -12552.006      1248.026       1289.5998     -574.26965    
       350  -12563.423      11.429054     -12551.994      1245.3382      1291.9081     -1028.703     
       351  -12563.386      11.402823     -12551.983      1242.48        1294.2273     -1484.9725    
       352  -12563.348      11.375172     -12551.973      1239.4671      1296.5388     -1943.8095    
       353  -12563.311      11.346122     -12551.965      1236.3017      1298.8235     -2404.5472    
       354  -12563.273      11.315617     -12551.958      1232.9778      1301.0616     -2862.6774    
       355  -12563.237      11.283615     -12551.953      1229.4908      1303.2326     -3311.7889    
       356  -12563.201      11.250185     -12551.951      1225.8481      1305.3161     -3745.6813    
       357  -12563.166      11.215566     -12551.951      1222.076       1307.2913     -4159.1016    
       358  -12563.134      11.180194     -12551.953      1218.2218      1309.138      -4548.1837    
       359  -12563.104      11.144682     -12551.959      1214.3523      1310.8361     -4909.2468    
       360  -12563.079      11.109796     -12551.969      1210.5511      1312.3664     -5236.2137    
       361  -12563.058      11.076414     -12551.982      1206.9136      1313.7104     -5521.5426    
       362  -12563.043      11.045471     -12551.998      1203.542       1314.8511     -5756.9125    
       363  -12563.036      11.017924     -12552.018      1200.5404      1315.7731     -5934.4697    
       364  -12563.036      10.994686     -12552.041      1198.0083      1316.4635     -6049.4128    
       365  -12563.044      10.976528     -12552.067      1196.0298      1316.9114     -6101.6529    
       366  -12563.061      10.964008     -12552.097      1194.6656      1317.1092     -6093.2755    
       367  -12563.085      10.957436     -12552.128      1193.9495      1317.0516     -6026.5796    
       368  -12563.118      10.956829     -12552.161      1193.8834      1316.736      -5905.3715    
       369  -12563.156      10.961883     -12552.195      1194.434       1316.1628     -5728.8543    
       370  -12563.2        10.971951     -12552.228      1195.531       1315.3351     -5491.9301    
       371  -12563.247      10.986016     -12552.261      1197.0637      1314.2591     -5187.6307    
       372  -12563.295      11.002652     -12552.292      1198.8764      1312.9448     -4809.578     
       373  -12563.34       11.019999     -12552.32       1200.7665      1311.4058     -4354.4557    
       374  -12563.38       11.03583      -12552.344      1202.4915      1309.6602     -3823.1963    
       375  -12563.41       11.047666     -12552.363      1203.7812      1307.7298     -3216.5992    
       376  -12563.428      11.052905     -12552.375      1204.352       1305.6406     -2536.59      
       377  -12563.43       11.048995     -12552.381      1203.926       1303.4223     -1790.1244    
       378  -12563.413      11.033614     -12552.379      1202.2501      1301.108      -986.02544    
       379  -12563.374      11.004821     -12552.369      1199.1126      1298.7335     -132.17107    
       380  -12563.313      10.961216     -12552.351      1194.3613      1296.3372      761.78571    
       381  -12563.228      10.902112     -12552.325      1187.9213      1293.9589      1685.0507    
       382  -12563.119      10.827659     -12552.291      1179.8087      1291.6396      2627.1393    
       383  -12562.989      10.738886     -12552.25       1170.1358      1289.4208      3576.1453    
       384  -12562.84       10.637672     -12552.202      1159.1072      1287.3436      4521.9913    
       385  -12562.675      10.526677     -12552.148      1147.013       1285.4488      5450.4558    
       386  -12562.5        10.40929      -12552.09       1134.2221      1283.7758      6342.9981    
       387  -12562.319      10.289532     -12552.029      1121.173       1282.362       7177.5047    
       388  -12562.138      10.171908     -12551.966      1108.3564      1281.242       7930.3964    
       389  -12561.964      10.061215     -12551.903      1096.295       1280.4471      8580.7776    
       390  -12561.803      9.9623025     -12551.84       1085.5173      1280.0042      9112.7877    
       391  -12561.66       9.8797856     -12551.78       1076.526       1279.9355      9514.1038    
       392  -12561.541      9.8177753     -12551.723      1069.7692      1280.2586      9772.3071    
       393  -12561.449      9.7796443     -12551.67       1065.6144      1280.9854      9875.8247    
       394  -12561.388      9.7678209     -12551.62       1064.3261      1282.1226      9815.7096    
       395  -12561.359      9.7836253     -12551.575      1066.0482      1283.6707      9587.6539    
       396  -12561.361      9.8271563     -12551.534      1070.7914      1285.6244      9189.917     
       397  -12561.393      9.8972551     -12551.495      1078.4295      1287.9719      8623.6056    
       398  -12561.45       9.9915929     -12551.459      1088.7088      1290.695       7896.5292    
       399  -12561.529      10.106893     -12551.422      1101.2722      1293.7696      7025.6112    
       400  -12561.624      10.239229     -12551.385      1115.6919      1297.1651      6036.1178    
       401  -12561.729      10.384324     -12551.345      1131.5018      1300.846       4960.0124    
       402  -12561.838      10.537804     -12551.301      1148.2254      1304.7727      3832.0269    
       403  -12561.947      10.69536      -12551.252      1165.393       1308.9022      2681.254     
       404  -12562.049      10.852832     -12551.196      1182.5515      1313.1898      1531.2927    
       405  -12562.141      11.006327     -12551.135      1199.2767      1317.5893      403.65179    
       406  -12562.218      11.152329     -12551.066      1215.1855      1322.0542     -680.8623     
       407  -12562.278      11.287797     -12550.99       1229.9464      1326.5383     -1704.7856    
       408  -12562.318      11.410219     -12550.907      1243.2858      1330.9967     -2655.7468    
       409  -12562.336      11.51765      -12550.819      1254.9918      1335.3865     -3523.373     
       410  -12562.333      11.60874      -12550.724      1264.9172      1339.6671     -4297.0978    
       411  -12562.308      11.682739     -12550.625      1272.9803      1343.8011     -4965.1294    
       412  -12562.262      11.739471     -12550.523      1279.162       1347.7551     -5518.3881    
       413  -12562.197      11.779292     -12550.418      1283.5009      1351.4999     -5949.7064    
       414  -12562.115      11.803035     -12550.312      1286.088       1355.0118     -6258.5252    
       415  -12562.017      11.811944     -12550.205      1287.0588      1358.2722     -6450.0477    
       416  -12561.907      11.807621     -12550.099      1286.5878      1361.268      -6532.3995    
       417  -12561.786      11.792        -12549.994      1284.8857      1363.9911     -6513.7575    
       418  -12561.658      11.767322     -12549.891      1282.1967      1366.4382     -6403.2123    
       419  -12561.526      11.736079     -12549.79       1278.7923      1368.6108     -6210.6133    
       420  -12561.392      11.700923     -12549.691      1274.9617      1370.5144     -5945.9456    
       421  -12561.26       11.664546     -12549.596      1270.9979      1372.1583     -5619.1786    
       422  -12561.132      11.629584     -12549.502      1267.1884      1373.5551     -5245.3699    
       423  -12561.01       11.598558     -12549.412      1263.8078      1374.72       -4843.0933    
       424  -12560.897      11.573751     -12549.324      1261.1047      1375.67       -4425.507     
       425  -12560.795      11.557013     -12549.238      1259.2809      1376.4229     -3998.3791    
       426  -12560.704      11.549603     -12549.154      1258.4735      1376.9974     -3566.2435    
       427  -12560.625      11.552126     -12549.073      1258.7484      1377.4127     -3136.6028    
       428  -12560.559      11.564553     -12548.994      1260.1025      1377.6882     -2719.6506    
       429  -12560.504      11.58629      -12548.918      1262.471       1377.8426     -2324.5195    
       430  -12560.46       11.616232     -12548.844      1265.7336      1377.8939     -1957.1264    
       431  -12560.425      11.65283      -12548.772      1269.7213      1377.8589     -1620.5489    
       432  -12560.397      11.694192     -12548.703      1274.2283      1377.753      -1316.0933    
       433  -12560.375      11.738248     -12548.637      1279.0287      1377.5903     -1043.0712    
       434  -12560.356      11.782915     -12548.573      1283.8957      1377.3833     -800.01372    
       435  -12560.34       11.826277     -12548.513      1288.6206      1377.1432     -586.84783    
       436  -12560.324      11.866739     -12548.457      1293.0294      1376.88       -401.50265    
       437  -12560.307      11.903127     -12548.404      1296.9944      1376.6021     -238.50688    
       438  -12560.29       11.93473      -12548.356      1300.4379      1376.3171     -92.252069    
       439  -12560.272      11.961301     -12548.311      1303.3332      1376.0319      36.232595    
       440  -12560.253      11.983065     -12548.27       1305.7046      1375.7524      140.13851    
       441  -12560.235      12.00064      -12548.234      1307.6196      1375.4836      214.47131    
       442  -12560.217      12.014908     -12548.203      1309.1742      1375.2289      259.89753    
       443  -12560.202      12.026913     -12548.175      1310.4824      1374.9906      281.09037    
       444  -12560.19       12.037717     -12548.152      1311.6595      1374.7697      282.04072    
       445  -12560.182      12.048188     -12548.134      1312.8006      1374.5664      264.67944    
       446  -12560.179      12.058839     -12548.12       1313.9611      1374.3799      231.07766    
       447  -12560.18       12.069716     -12548.11       1315.1463      1374.2088      185.21763    
       448  -12560.185      12.080375     -12548.104      1316.3077      1374.0509      130.75926    
       449  -12560.192      12.089878     -12548.102      1317.3432      1373.904       73.215473    
       450  -12560.201      12.096836     -12548.104      1318.1013      1373.7652      17.744781    
       451  -12560.209      12.099473     -12548.11       1318.3887      1373.6321     -33.224796    
       452  -12560.214      12.095779     -12548.119      1317.9862      1373.5023     -78.97599     
       453  -12560.214      12.083751     -12548.13       1316.6756      1373.3737     -118.90573    
       454  -12560.207      12.061703     -12548.145      1314.2732      1373.2443     -152.70685    
       455  -12560.19       12.028567     -12548.162      1310.6625      1373.1126     -181.23863    
       456  -12560.165      11.984122     -12548.181      1305.8198      1372.9772     -205.15071    
       457  -12560.13       11.929127     -12548.201      1299.8274      1372.8369     -225.32342    
       458  -12560.089      11.865325     -12548.224      1292.8754      1372.6906     -242.11204    
       459  -12560.043      11.795341     -12548.247      1285.2497      1372.5376     -256.4401     
       460  -12559.995      11.722493     -12548.272      1277.312       1372.377      -269.0833     
       461  -12559.949      11.650569     -12548.299      1269.475       1372.208      -280.0702     
       462  -12559.91       11.583556     -12548.327      1262.1731      1372.0301     -289.6771     
       463  -12559.881      11.5253       -12548.356      1255.8253      1371.8427     -298.83042    
       464  -12559.867      11.479105     -12548.388      1250.7919      1371.6452     -309.18418    
       465  -12559.869      11.447353     -12548.422      1247.3321      1371.437      -322.53836    
       466  -12559.89       11.431247     -12548.459      1245.5771      1371.2173     -337.76158    
       467  -12559.931      11.430665     -12548.5        1245.5138      1370.9852     -355.66447    
       468  -12559.99       11.444092     -12548.546      1246.9767      1370.7397     -383.65926    
       469  -12560.065      11.46869      -12548.597      1249.657       1370.4793     -430.98045    
       470  -12560.155      11.500564     -12548.654      1253.1301      1370.2016     -503.2637     
       471  -12560.253      11.535111     -12548.718      1256.8944      1369.9029     -600.4569     
       472  -12560.358      11.567403     -12548.79       1260.413       1369.5785     -717.88691    
       473  -12560.463      11.592528     -12548.87       1263.1507      1369.2224     -850.02046    
       474  -12560.565      11.605891     -12548.959      1264.6068      1368.8279     -993.35076    
       475  -12560.66       11.603493     -12549.057      1264.3455      1368.3879     -1144.9385    
       476  -12560.746      11.582201     -12549.163      1262.0254      1367.8946     -1302.0536    
       477  -12560.818      11.53997      -12549.278      1257.4238      1367.3398     -1461.5435    
       478  -12560.878      11.475968     -12549.402      1250.45        1366.7153     -1621.0164    
       479  -12560.922      11.390575     -12549.532      1241.1454      1366.0124     -1775.1588    
       480  -12560.953      11.285279     -12549.668      1229.6721      1365.223      -1917.6753    
       481  -12560.972      11.162516     -12549.809      1216.2955      1364.3392     -2042.7567    
       482  -12560.98       11.025504     -12549.954      1201.3663      1363.3539     -2146.2179    
       483  -12560.979      10.878067     -12550.101      1185.3012      1362.261      -2224.1156    
       484  -12560.972      10.724435     -12550.248      1168.5611      1361.0556     -2271.0016    
       485  -12560.962      10.569016     -12550.393      1151.6262      1359.7344     -2281.2425    
       486  -12560.952      10.416146     -12550.536      1134.9692      1358.296      -2250.0167    
       487  -12560.945      10.269865     -12550.675      1119.0301      1356.7407     -2174.9684    
       488  -12560.941      10.133726     -12550.808      1104.196       1355.0716     -2056.0866    
       489  -12560.944      10.010661     -12550.933      1090.7866      1353.2936     -1894.4863    
       490  -12560.954      9.9029043     -12551.051      1079.0451      1351.4143     -1692.4147    
       491  -12560.971      9.8119447     -12551.159      1069.1339      1349.4431     -1454.0744    
       492  -12560.996      9.7384944     -12551.257      1061.1306      1347.3916     -1184.0072    
       493  -12561.027      9.6824825     -12551.345      1055.0274      1345.273      -886.69696    
       494  -12561.064      9.6431028     -12551.421      1050.7365      1343.1022     -562.17491    
       495  -12561.105      9.6189091     -12551.486      1048.1003      1340.8953     -207.98496    
       496  -12561.147      9.6079817     -12551.539      1046.9096      1338.6701      174.36685    
       497  -12561.188      9.6081332     -12551.58       1046.9261      1336.4456      580.11295    
       498  -12561.227      9.6170892     -12551.61       1047.902       1334.2417      1005.6409    
       499  -12561.261      9.6326494     -12551.628      1049.5974      1332.0795      1447.969     
       500  -12561.288      9.6528481     -12551.636      1051.7984      1329.9801      1905.3214    
       501  -12561.309      9.6760928     -12551.633      1054.3312      1327.9654      2375.1273    
       502  -12561.322      9.7012575     -12551.621      1057.0732      1326.0574      2852.733     
       503  -12561.329      9.7277042     -12551.601      1059.9549      1324.2779      3329.3238    
       504  -12561.329      9.7552148     -12551.574      1062.9525      1322.6486      3797.5861    
       505  -12561.324      9.7838899     -12551.54       1066.077       1321.1901      4251.556     
       506  -12561.316      9.8140979     -12551.501      1069.3685      1319.9221      4681.7887    
       507  -12561.306      9.8464466     -12551.459      1072.8933      1318.863       5078.2355    
       508  -12561.296      9.8816722     -12551.414      1076.7316      1318.0296      5433.4066    
       509  -12561.288      9.920431      -12551.367      1080.9549      1317.4364      5742.1437    
       510  -12561.283      9.9630649     -12551.32       1085.6003      1317.0961      5999.6166    
       511  -12561.282      10.009397     -12551.273      1090.6488      1317.0193      6202.4953    
       512  -12561.285      10.058628     -12551.226      1096.0131      1317.214       6351.1503    
       513  -12561.291      10.109394     -12551.181      1101.5447      1317.6864      6446.7637    
       514  -12561.298      10.15997      -12551.138      1107.0556      1318.4405      6491.5815    
       515  -12561.306      10.208541     -12551.098      1112.348       1319.4786      6487.0373    
       516  -12561.313      10.253473     -12551.059      1117.2439      1320.8012      6432.5758    
       517  -12561.317      10.293505     -12551.023      1121.6059      1322.4069      6325.3977    
       518  -12561.318      10.327819     -12550.99       1125.3448      1324.2926      6162.6487    
       519  -12561.316      10.356003     -12550.96       1128.4159      1326.4531      5943.4928    
       520  -12561.309      10.377967     -12550.931      1130.8091      1328.881       5668.9893    
       521  -12561.299      10.393854     -12550.905      1132.5402      1331.5668      5340.2949    
       522  -12561.286      10.404001     -12550.882      1133.6458      1334.499       4958.6001    
       523  -12561.268      10.40896      -12550.859      1134.1862      1337.6637      4528.2302    
       524  -12561.248      10.409527     -12550.838      1134.248       1341.0449      4055.8173    
       525  -12561.225      10.406736     -12550.818      1133.9439      1344.6246      3546.9795    
       526  -12561.2        10.401783     -12550.798      1133.4042      1348.3832      3003.8626    
       527  -12561.175      10.395909     -12550.779      1132.7642      1352.299       2425.879     
       528  -12561.149      10.390289     -12550.759      1132.1518      1356.3483      1812.5426    
       529  -12561.124      10.385934     -12550.738      1131.6772      1360.5057      1166.3166    
       530  -12561.1        10.383635     -12550.716      1131.4267      1364.7432      494.65622    
       531  -12561.077      10.383923     -12550.693      1131.4581      1369.0312     -194.35743    
       532  -12561.055      10.387025     -12550.668      1131.7961      1373.3387     -893.49206    
       533  -12561.034      10.392855     -12550.641      1132.4313      1377.6333     -1595.9642    
       534  -12561.013      10.401034     -12550.611      1133.3226      1381.8817     -2295.2981    
       535  -12560.991      10.410959     -12550.58       1134.404       1386.0501     -2983.7149    
       536  -12560.968      10.421893     -12550.546      1135.5954      1390.1042     -3653.3271    
       537  -12560.943      10.433076     -12550.51       1136.814       1394.0103     -4296.6697    
       538  -12560.916      10.443805     -12550.472      1137.983       1397.7352     -4905.269     
       539  -12560.885      10.453513     -12550.432      1139.0408      1401.2469     -5470.9284    
       540  -12560.852      10.461828     -12550.391      1139.9468      1404.515      -5986.7433    
       541  -12560.817      10.468595     -12550.348      1140.6842      1407.5113     -6449.3543    
       542  -12560.779      10.47387      -12550.305      1141.2589      1410.2099     -6858.0184    
       543  -12560.739      10.477888     -12550.261      1141.6967      1412.5876     -7214.8569    
       544  -12560.698      10.481059     -12550.217      1142.0423      1414.6238     -7520.3426    
       545  -12560.658      10.483982     -12550.174      1142.3608      1416.3004     -7772.692     
       546  -12560.618      10.487376     -12550.131      1142.7306      1417.602      -7970.1527    
       547  -12560.581      10.491958     -12550.089      1143.2299      1418.5163     -8110.7521    
       548  -12560.548      10.498376     -12550.049      1143.9292      1419.0341     -8192.3734    
       549  -12560.518      10.507194     -12550.01       1144.89        1419.1494     -8213.1172    
       550  -12560.492      10.518882     -12549.973      1146.1635      1418.8595     -8172.9239    
       551  -12560.472      10.533763     -12549.938      1147.785       1418.1653     -8073.2007    
       552  -12560.458      10.55198      -12549.906      1149.77        1417.0707     -7915.0869    
       553  -12560.448      10.573479     -12549.875      1152.1125      1415.5831     -7698.7432    
       554  -12560.444      10.598005     -12549.846      1154.785       1413.713      -7427.1301    
       555  -12560.444      10.625114     -12549.819      1157.7389      1411.4741     -7105.2398    
       556  -12560.448      10.65418      -12549.794      1160.906       1408.8828     -6735.2136    
       557  -12560.455      10.684412     -12549.77       1164.2001      1405.9579     -6316.4107    
       558  -12560.463      10.714878     -12549.748      1167.5198      1402.7211     -5847.7995    
       559  -12560.472      10.744585     -12549.727      1170.7567      1399.1965     -5330.119     
       560  -12560.48       10.772571     -12549.707      1173.8062      1395.4107     -4765.9119    
       561  -12560.485      10.79799      -12549.687      1176.5759      1391.3927     -4157.4436    
       562  -12560.487      10.820145     -12549.667      1178.9899      1387.1733     -3506.07      
       563  -12560.485      10.838511     -12549.647      1180.9911      1382.7855     -2812.8087    
       564  -12560.478      10.852774     -12549.626      1182.5453      1378.2638     -2081.0592    
       565  -12560.466      10.862895     -12549.603      1183.6481      1373.6443     -1317.2107    
       566  -12560.448      10.869144     -12549.579      1184.329       1368.9644     -530.15458    
       567  -12560.425      10.872081     -12549.553      1184.649       1364.2618      269.57379    
       568  -12560.398      10.872557     -12549.526      1184.7009      1359.5743      1068.7345    
       569  -12560.368      10.871735     -12549.496      1184.6113      1354.9392      1851.8247    
       570  -12560.335      10.871086     -12549.464      1184.5406      1350.3924      2605.7546    
       571  -12560.303      10.872323     -12549.431      1184.6754      1345.9678      3323.0972    
       572  -12560.273      10.877282     -12549.396      1185.2157      1341.6972      4001.5514    
       573  -12560.247      10.887811     -12549.359      1186.3629      1337.6098      4639.4005    
       574  -12560.228      10.90569      -12549.322      1188.3111      1333.7329      5231.1459    
       575  -12560.218      10.932583     -12549.285      1191.2414      1330.0912      5768.8332    
       576  -12560.218      10.969941     -12549.248      1195.312       1326.7065      6242.3689    
       577  -12560.231      11.01887      -12549.212      1200.6435      1323.598       6641.0521    
       578  -12560.257      11.079957     -12549.177      1207.2996      1320.7811      6955.7668    
       579  -12560.298      11.153091     -12549.145      1215.2685      1318.268       7182.4521    
       580  -12560.352      11.237344     -12549.115      1224.449       1316.0669      7318.5746    
       581  -12560.419      11.330968     -12549.089      1234.6505      1314.1824      7361.891     
       582  -12560.497      11.431515     -12549.066      1245.6063      1312.6155      7311.5898    
       583  -12560.583      11.53605      -12549.047      1256.9967      1311.3635      7169.0781    
       584  -12560.674      11.641366     -12549.033      1268.4722      1310.4201      6937.9984    
       585  -12560.768      11.744165     -12549.024      1279.6735      1309.7754      6623.3708    
       586  -12560.861      11.841228     -12549.019      1290.2497      1309.4165      6233.0212    
       587  -12560.95       11.929564     -12549.02       1299.875       1309.3277      5776.5563    
       588  -12561.032      12.006548     -12549.026      1308.2634      1309.4903      5268.0301    
       589  -12561.107      12.070053     -12549.037      1315.183       1309.8838      4723.1652    
       590  -12561.171      12.118552     -12549.052      1320.4675      1310.4863      4154.4558    
       591  -12561.224      12.151197     -12549.072      1324.0247      1311.2747      3571.6053    
       592  -12561.265      12.167867     -12549.097      1325.841       1312.2254      2982.5657    
       593  -12561.294      12.169136     -12549.125      1325.9793      1313.3141      2391.4515    
       594  -12561.313      12.156161     -12549.157      1324.5655      1314.5165      1801.194     
       595  -12561.322      12.130504     -12549.192      1321.7699      1315.808       1215.6213    
       596  -12561.323      12.093927     -12549.229      1317.7844      1317.1639      640.22211    
       597  -12561.317      12.048217     -12549.269      1312.8037      1318.5598      83.443344    
       598  -12561.305      11.995111     -12549.31       1307.0171      1319.9717     -439.2572     
       599  -12561.288      11.936268     -12549.352      1300.6054      1321.3767     -909.75576    
       600  -12561.267      11.873118     -12549.394      1293.7245      1322.7541     -1321.2723    
       601  -12561.244      11.806689     -12549.437      1286.4862      1324.0855     -1675.5143    
       602  -12561.218      11.737598     -12549.48       1278.9579      1325.3548     -1970.9472    
       603  -12561.189      11.666158     -12549.523      1271.1737      1326.5485     -2201.1823    
       604  -12561.157      11.592502     -12549.564      1263.1479      1327.6556     -2360.8317    
       605  -12561.122      11.516642     -12549.605      1254.882       1328.6685     -2448.7735    
       606  -12561.083      11.438448     -12549.645      1246.3618      1329.5824     -2469.4629    
       607  -12561.041      11.357624     -12549.683      1237.555       1330.396      -2426.2658    
       608  -12560.994      11.273718     -12549.72       1228.4124      1331.1103     -2321.1388    
       609  -12560.942      11.18617      -12549.755      1218.8729      1331.7295     -2153.1852    
       610  -12560.884      11.094386     -12549.789      1208.8719      1332.2607     -1919.4133    
       611  -12560.82       10.997829     -12549.822      1198.3508      1332.7136     -1618.3774    
       612  -12560.749      10.896071     -12549.853      1187.263       1333.1013     -1257.6226    
       613  -12560.671      10.788831     -12549.882      1175.5779      1333.4394     -850.46074    
       614  -12560.586      10.676048     -12549.91       1163.2887      1333.7459     -407.47302    
       615  -12560.494      10.557984     -12549.936      1150.4242      1334.04        65.614839    
       616  -12560.395      10.43532      -12549.96       1137.0584      1334.3427      563.01851    
       617  -12560.292      10.309261     -12549.982      1123.3228      1334.6759      1074.874     
<<<<<<< HEAD
Loop time of 20.7098 on 8 procs for 617 steps with 72 atoms

Performance: 2.574 ns/day, 9.324 hours/ns, 29.793 timesteps/s, 2.145 katom-step/s
=======
Loop time of 24.2785 on 8 procs for 617 steps with 72 atoms

Performance: 2.196 ns/day, 10.930 hours/ns, 25.413 timesteps/s, 1.830 katom-step/s
>>>>>>> 997016ce (tmp version)
99.5% CPU use with 8 MPI tasks x no OpenMP threads

MPI task timing breakdown:
Section |  min time  |  avg time  |  max time  |%varavg| %total
---------------------------------------------------------------
<<<<<<< HEAD
Pair    | 20.519     | 20.523     | 20.551     |   0.2 | 99.10
Neigh   | 0.0023723  | 0.0025542  | 0.0027079  |   0.2 |  0.01
Comm    | 0.020203   | 0.047959   | 0.052223   |   4.8 |  0.23
Output  | 0.061508   | 0.067117   | 0.10595    |   5.7 |  0.32
Modify  | 0.028635   | 0.067651   | 0.073344   |   5.7 |  0.33
Other   |            | 0.001519   |            |       |  0.01
=======
Pair    | 23.909     | 23.931     | 24.083     |   1.2 | 98.57
Neigh   | 0.0022428  | 0.0024768  | 0.002702   |   0.3 |  0.01
Comm    | 0.01904    | 0.17099    | 0.1931     |  13.9 |  0.70
Output  | 0.053291   | 0.066491   | 0.15835    |  13.5 |  0.27
Modify  | 0.014053   | 0.10587    | 0.11913    |  10.7 |  0.44
Other   |            | 0.001671   |            |       |  0.01
>>>>>>> 997016ce (tmp version)

Nlocal:              9 ave          11 max           6 min
Histogram: 1 0 0 0 1 0 3 0 2 1
Nghost:            546 ave         560 max         534 min
Histogram: 1 1 1 0 1 2 1 0 0 1
Neighs:              0 ave           0 max           0 min
Histogram: 8 0 0 0 0 0 0 0 0 0
FullNghs:      1043.75 ave        1260 max         682 min
Histogram: 1 0 0 0 1 0 3 0 2 1

Total # of neighbors = 8350
Ave neighs/atom = 115.97222
Neighbor list builds = 61
Dangerous builds not checked
<<<<<<< HEAD
Total wall time: 0:00:21
=======
Total wall time: 0:00:24
>>>>>>> 997016ce (tmp version)
