ITEM: TIMESTEP
0
ITEM: NUMBER OF ATOMS
72
ITEM: BOX BOUNDS xy xz yz pp pp pp
-1.8390799999999999e-01 9.5831819999999990e+00 -1.8390799999999999e-01
-1.8702700000000000e-01 8.0281629999999993e+00 4.4134600000000002e-01
0.0000000000000000e+00 1.5035862000000000e+01 -1.8702700000000000e-01
ITEM: ATOMS id type x y z vx vy vz fx fy fz
5 1 2.19772 4.01569 0.00120287 -11.7583 3.98499 3.11164 -0.0124967 0.000901332 0.0166231
7 1 2.32115 7.9346 7.51701 9.90208 -5.85822 0.897849 0.00900013 0.00052706 0.0123307
9 1 2.41786 0.900903 5.35126 0.0150238 -0.782091 16.7289 -0.00359876 -0.000657587 0.0335127
13 1 2.22786 4.95439 2.17551 -1.00763 -9.35365 -3.77427 0.0108592 -0.00486945 -0.00969233
17 1 2.28476 1.86306 1.54315 0.0962517 25.3334 -17.9632 0.0227464 -0.0191697 -0.00533169
21 1 2.3293 5.80888 5.97076 24.1026 -11.7733 -4.51799 0.0313324 -0.0198169 0.0060075
25 1 2.32083 3.27915 3.87255 -2.69842 4.36647 9.64882 0.0525771 -0.0234061 0.047363
29 1 2.21983 7.28512 3.63835 -27.1181 -22.7678 5.84339 -0.0132596 0.000221107 -0.00578298
36 1 4.44245 5.40548 0.1844 -1.1083 1.02439 -12.6773 0.060773 -0.0343381 0.0102585
40 1 4.7525 1.30649 7.33917 -7.64384 -10.6673 -5.48712 0.0886456 -0.0627979 -0.014305
42 1 4.62979 0.890335 2.84791 -10.787 15.6178 -24.1023 -0.022778 0.0343818 -0.011474
45 1 0.0309417 4.89062 4.67587 36.3132 -7.56482 -6.82795 -0.0501575 0.0169077 -0.0403113
46 1 4.59269 4.88527 4.66763 -4.34846 10.8096 12.138 -0.0338277 0.0562378 -0.0123035
49 1 0.101888 2.32304 5.01825 2.90332 -5.6895 -6.87087 -0.0329179 -0.0399063 0.0262345
53 1 -0.0665439 6.37728 2.49125 9.51046 -27.0485 11.036 0.0162244 -0.0839433 0.0549375
57 2 2.39662 3.12333 6.55652 1.24462 3.06356 1.48616 0.0872039 -0.0200312 0.00668778
61 2 2.14427 7.20052 0.967257 -5.50247 -4.2308 -0.788273 -0.0795688 0.0576541 -0.0614691
65 2 -0.0120549 3.51997 2.31307 5.81634 2.7796 -3.80512 -0.00931806 0.0238891 0.026761
66 2 4.55087 3.52908 2.31854 -5.57567 3.37431 -4.48576 0.0341708 -0.0155207 -0.00597116
70 2 4.54593 7.5074 5.20824 0.525787 -5.41638 -2.79645 -0.0735906 -0.00922784 -0.0397296
2 1 4.82615 7.83781 15.0354 3.17175 4.65674 18.2614 0.0110008 0.00670789 0.00111143
3 1 0.13663 3.92602 7.53115 -20.5813 1.68902 -0.16202 -0.0588773 -0.0128758 -0.0190828
11 1 2.39743 6.93351 9.6904 2.21516 -14.4898 6.87168 0.0435768 0.0304494 -0.0750768
15 1 2.57793 2.89763 12.8744 -0.177751 11.2794 9.59467 0.0315475 -0.0158244 -0.0333099
19 1 2.55079 5.9891 13.4999 1.20339 21.8128 -17.107 -0.0450767 0.000371055 -0.0035165
23 1 2.50136 2.03746 9.06947 -2.05936 -13.1487 6.24018 -0.0360804 0.0076486 -0.0135206
27 1 2.5076 4.57103 11.1483 -7.23466 -9.45104 -9.12971 -0.0410697 -0.0158179 0.0132123
31 1 2.60113 0.540969 11.4007 5.8517 7.19058 -7.18284 0.0478675 0.0348136 0.0289826
38 1 4.64432 6.54326 7.7022 -18.8198 5.29417 -7.16348 -0.0923636 0.043403 0.00104072
44 1 4.75776 6.94127 12.1849 -2.92916 -8.89505 -5.03891 0.0323312 0.00315458 0.0214931
51 1 0.169744 5.53074 10.018 -10.5884 -1.17592 8.8907 -0.012736 0.00884983 -0.0125567
52 1 4.73473 5.52227 10.0111 19.883 3.16946 -24.361 0.023856 0.034031 -0.0121405
59 2 2.42493 4.71825 8.47242 -8.69111 2.32659 2.87412 -0.0369897 0.0358945 0.0162738
63 2 2.68591 0.641697 14.0851 1.854 -10.8674 -2.13014 0.0714466 -0.0294377 0.0024857
67 2 0.274814 4.32847 12.7295 -3.34728 9.09843 8.80935 -0.0298253 -0.0364781 -0.0668247
68 2 4.83201 4.31484 12.7331 -2.86101 11.5639 3.05735 0.0213484 -0.00567743 -0.0743696
1 1 9.14054 0.00216234 0.0101041 -0.0166192 -5.74355 -0.981579 0.00695633 0.00185022 -0.0214147
6 1 6.76749 4.01224 0.0103597 -0.37026 3.62855 7.35155 -0.00181815 -0.0090212 -0.00858906
8 1 6.88556 7.92731 7.50999 0.776152 -8.02965 18.5593 -0.00238284 0.0108032 0.0179431
10 1 6.98908 0.900353 5.35027 7.97233 6.14905 11.9117 0.00436548 0.00679041 0.0397355
14 1 6.80308 4.95844 2.16769 3.8225 8.72832 25.1571 0.00976646 -0.0318525 0.0346819
18 1 6.85609 1.84474 1.55328 27.1138 -4.47236 -11.0895 0.0152467 0.00549637 -0.0415982
22 1 6.90169 5.80633 5.98543 4.27785 -20.6406 -1.99147 0.0263606 -0.0419883 -0.0320594
26 1 6.89673 3.27889 3.87649 9.19477 -2.3025 -12.7496 0.0403094 -0.00909327 0.0343983
30 1 6.80036 7.29561 3.64017 11.3607 3.69968 -2.72899 -0.038307 -0.0342566 -0.013314
35 1 9.02006 5.41192 0.181784 -4.55387 17.5894 13.816 0.0482753 -0.0491501 0.00285373
39 1 9.32328 1.30222 7.33385 -20.1174 4.42831 0.686169 0.0758546 -0.0499345 -0.0136543
41 1 9.20138 0.897554 2.85102 1.17729 -26.3879 -14.5334 -0.000348126 0.015688 -0.0156606
50 1 4.66567 2.32423 5.02647 18.6388 7.9756 4.00227 -0.0123255 -0.0429751 0.00260741
54 1 4.50369 6.3666 2.49537 -9.48809 -3.34989 1.54529 0.0250241 -0.0560824 0.0504372
58 2 6.97921 3.11287 6.5586 4.91959 2.90037 0.963034 0.0593775 0.0522806 0.0759165
62 2 6.71901 7.19389 0.965362 -1.30164 3.30488 -6.00112 -0.107338 0.0796405 -0.0794158
69 2 9.11729 7.49151 5.20456 6.51225 -4.0093 8.80479 -0.0682766 0.0541781 -0.027541
4 1 4.70489 3.91967 7.5213 2.1183 -9.47671 5.38897 -0.0141904 0.00401512 -0.014073
12 1 6.98742 6.94484 9.69048 -9.66434 -0.127928 -4.37988 -0.0141739 -0.0292669 -0.0776958
16 1 7.16737 2.89269 12.8636 8.38956 9.98669 -1.84939 -0.00135738 -0.00651525 0.0214391
20 1 7.10301 5.98345 13.4987 13.8849 -3.10994 9.10217 -0.00673255 -0.000970681 0.0022992
24 1 7.08213 2.01823 9.06369 5.94341 2.54601 -12.8753 -0.0445626 0.0493581 -0.00782531
28 1 7.087 4.56496 11.162 2.77016 28.5048 -21.3852 -0.0700367 0.0216713 -0.0301733
32 1 7.17891 0.545754 11.3871 -14.3904 -12.4601 5.87838 0.00869901 0.032848 0.0700068
33 1 9.51538 2.42531 14.8509 10.8658 23.0654 7.18003 -0.0309604 0.0605531 0.0155273
34 1 4.95181 2.43693 14.8364 5.59032 2.11394 -10.6867 -0.0492345 0.0293736 0.0563505
37 1 9.21448 6.54456 7.70328 -18.1844 -6.6413 24.47 -0.0859702 0.0461658 -0.000371572
43 1 9.33404 6.95339 12.1847 1.65425 -25.5338 -6.38169 0.000700313 -0.020451 0.0528458
47 1 9.3731 2.95193 10.3611 -24.0196 2.04159 8.55835 0.0405767 -0.0018782 0.0343262
48 1 4.80833 2.9502 10.3573 14.4703 -8.62029 5.35547 0.047811 -0.0151748 0.0328621
55 1 9.47002 1.48716 12.5312 0.139649 6.13876 -14.6318 -0.0443188 0.0331075 -0.0343387
56 1 4.90751 1.48427 12.5305 -11.9035 -1.35478 0.184831 -0.0634267 0.0263395 -0.0466994
60 2 6.99203 4.726 8.48577 -4.58476 -15.8088 3.73849 -0.0254283 -0.06292 -0.0650076
64 2 7.25162 0.627842 14.0682 7.88856 7.94983 -1.45732 0.104116 -0.0060943 0.0602805
71 2 9.41326 0.341142 9.82699 5.49234 4.82489 -7.84193 0.1333 -0.0054173 0.0456186
72 2 4.86068 0.33339 9.82285 -8.26134 0.0429867 2.09844 0.022474 -0.00336419 0.0707546
ITEM: TIMESTEP
1
ITEM: NUMBER OF ATOMS
72
ITEM: BOX BOUNDS xy xz yz pp pp pp
-1.8363305719464448e-01 9.5826502199504073e+00 -1.8370856988284109e-01
-1.8718725375671602e-01 8.0284995786234603e+00 4.4088973263860481e-01
-1.9934554849765362e-04 1.5036061345548497e+01 -1.8685067513325410e-01
ITEM: ATOMS id type x y z vx vy vz fx fy fz
5 1 2.18609 4.01967 0.00412675 -11.758 4.02966 3.11833 0.0133422 0.0639142 -0.00688356
7 1 2.33106 7.92917 7.51792 9.86283 -5.87469 0.931817 -0.0659529 -0.0249177 0.0365761
9 1 2.41777 0.899928 5.36796 0.0270639 -0.789059 16.7346 0.020182 -0.00915485 -0.0246834
13 1 2.22696 4.94514 2.17159 -0.972457 -9.34813 -3.78448 0.0396031 0.0116126 -0.00513831
17 1 2.28491 1.88822 1.52502 0.120209 25.2652 -17.9429 0.0133744 -0.0762835 0.0338173
21 1 2.35343 5.79732 5.9662 24.1107 -11.7778 -4.47928 -0.0204242 0.0118411 0.0495094
25 1 2.31817 3.28349 3.88213 -2.59851 4.32034 9.70099 0.0909758 -0.0422553 0.0280673
29 1 2.19282 7.26268 3.64408 -27.0875 -22.7272 5.84563 0.0568587 0.055629 0.00923187
36 1 4.44151 5.4066 0.171535 -1.03086 0.983535 -12.638 0.0512436 -0.0245568 0.0458692
40 1 4.74473 1.29565 7.33367 -7.50463 -10.7402 -5.50123 0.111683 -0.0433971 -0.0061984
42 1 4.61892 0.905751 2.82368 -10.8167 15.6344 -24.0784 -0.0180978 -0.00902588 0.0450038
45 1 0.0672764 4.8832 4.66894 36.2181 -7.53208 -6.84999 -0.0874581 0.0291614 0.00833865
46 1 4.5883 4.89626 4.67968 -4.38252 10.8551 12.0903 -0.0152107 0.0107519 -0.0558108
49 1 0.10475 2.31724 5.01133 2.85774 -5.7536 -6.8396 -0.032645 -0.0531386 0.0184934
53 1 -0.0568631 6.35041 2.50219 9.5175 -27.1401 11.1047 -0.00775026 -0.0509106 0.0443618
57 2 2.3978 3.1264 6.55798 1.26987 3.05875 1.49184 0.0598702 -0.0063315 0.0266352
61 2 2.13894 7.19658 0.966284 -5.52865 -4.20728 -0.806067 -0.0727511 0.0771159 -0.0422503
65 2 -0.00614676 3.52275 2.30913 5.81166 2.78305 -3.79153 -0.017413 -0.00273373 0.0517842
66 2 4.54532 3.53244 2.31392 -5.55872 3.37203 -4.48627 0.0663272 0.00357607 0.00232165
70 2 4.54647 7.50234 5.20538 0.501099 -5.41141 -2.81104 -0.0704716 0.0353228 -0.0455967
2 1 4.82907 7.84298 15.0539 3.18646 4.66958 18.2347 0.00948089 0.0126592 -0.0389015
3 1 0.115954 3.92779 7.53097 -20.5901 1.67094 -0.194108 0.0468487 -0.012937 -0.0270917
11 1 2.39959 6.91941 9.69728 2.26626 -14.4229 6.7714 0.0290922 0.0642607 -0.0689366
15 1 2.57749 2.90897 12.8841 -0.134314 11.2359 9.54426 0.0309403 -0.0452817 -0.0388447
19 1 2.55174 6.01125 13.483 1.13471 21.768 -17.0836 -0.0522768 -0.0624671 0.0365295
23 1 2.4991 2.02427 9.07574 -2.11679 -13.1104 6.21137 -0.0472213 0.045963 -0.0276957
27 1 2.50015 4.56175 11.1393 -7.26967 -9.47522 -9.10563 -0.00907891 -0.0202733 0.0210914
31 1 2.60673 0.548038 11.3937 5.8984 7.23309 -7.1301 0.0197472 0.0270849 0.0466323
38 1 4.62537 6.5489 7.69504 -18.9217 5.3358 -7.16488 -0.0533431 0.0170138 -0.00333465
44 1 4.75466 6.93278 12.18 -2.87816 -8.88078 -5.00995 0.0410161 0.0162094 0.0199933
51 1 0.159058 5.52983 10.027 -10.5802 -1.16543 8.85581 0.0243772 0.00626405 -0.0373048
52 1 4.75447 5.52571 9.98681 19.8679 3.19345 -24.349 -0.0449091 0.00041444 0.0284256
59 2 2.41613 4.72075 8.47532 -8.70231 2.33121 2.87058 -0.0275686 -0.0076419 -0.0364203
63 2 2.6874 0.630721 14.0832 1.87893 -10.8651 -2.13143 0.0723208 0.0377127 -0.0103127
67 2 0.271262 4.33775 12.7384 -3.35442 9.08065 8.78376 -0.0116654 -0.0619182 -0.0808435
68 2 4.82888 4.32659 12.7363 -2.84981 11.5516 3.02433 0.0452886 -0.0602307 -0.117383
1 1 9.14046 -0.00391618 0.00890856 -0.00458148 -5.71091 -1.02781 0.0102045 0.0444016 -0.0451323
6 1 6.76718 4.01586 0.0175062 -0.37134 3.62183 7.35908 8.7528e-05 -7.16631e-05 0.0197053
8 1 6.88626 7.91971 7.52856 0.754505 -8.01852 18.5447 -0.0298521 0.0045879 -0.0381902
10 1 6.99688 0.906314 5.36215 7.96676 6.12015 11.9643 -0.0128588 -0.0474092 0.0363057
14 1 6.80693 4.96725 2.19273 3.81457 8.68493 25.1569 -0.0220381 -0.0290567 -0.033998
18 1 6.88317 1.84011 1.542 27.1087 -4.45659 -11.1357 -0.0228483 0.0164382 -0.0253403
22 1 6.90592 5.78589 5.98338 4.32244 -20.6635 -2.03739 0.0370589 0.00655926 -0.034087
26 1 6.90588 3.27657 3.86366 9.24528 -2.32824 -12.6769 0.0326137 -0.0284576 0.0696149
30 1 6.81173 7.29961 3.63733 11.2839 3.67002 -2.72944 -0.0720992 -0.0080175 0.012559
35 1 9.0156 5.4296 0.195407 -4.4804 17.5 13.788 0.05757 -0.0771373 -0.0426971
39 1 9.30296 1.30648 7.33452 -19.972 4.34718 0.659061 0.133995 -0.0662506 -0.025322
41 1 9.20242 0.870952 2.83636 1.19589 -26.336 -14.551 0.0267578 0.0554987 -0.0103571
50 1 4.6842 2.3321 5.03041 18.6005 7.9057 3.99222 -0.0431442 -0.0565719 -0.0169093
54 1 4.4943 6.36344 2.49681 -9.44758 -3.41662 1.61606 0.0332973 -0.0403086 0.0514448
58 2 6.98399 3.11578 6.55955 4.93435 2.90883 0.981168 0.0262936 -0.00152106 0.0298108
62 2 6.7178 7.19749 0.959174 -1.33548 3.32838 -6.02 -0.0879914 0.0583253 -0.0314825
69 2 9.12375 7.48787 5.2133 6.48334 -3.99395 8.79323 -0.102744 0.0339111 -0.0383745
4 1 4.70687 3.91028 7.52668 2.07828 -9.46414 5.37363 -0.0440025 0.0130228 -0.00779494
12 1 6.97759 6.94506 9.6861 -9.66227 -0.16122 -4.47669 0.0175734 -0.0187315 -0.061766
16 1 7.1754 2.90274 12.8619 8.36461 9.98441 -1.83787 -0.0343056 0.00440039 -0.00493345
20 1 7.1166 5.98067 13.508 13.8583 -3.10179 9.0854 -0.0323561 0.0124866 -0.0260801
24 1 7.08778 2.02076 9.05085 5.8668 2.59951 -12.8615 -0.0651606 0.0276948 0.0271846
28 1 7.08946 4.59367 11.1407 2.6506 28.4909 -21.3518 -0.100134 -0.038715 0.0773507
32 1 7.16416 0.533171 11.3932 -14.3567 -12.4028 5.96527 0.0394793 0.0481399 0.0552348
33 1 9.52577 2.44847 14.8583 10.8 23.1013 7.16047 -0.0635516 -0.00600978 -0.0434033
34 1 4.95698 2.43912 14.826 5.51796 2.16264 -10.5952 -0.0544817 0.040769 0.0747843
37 1 9.19609 6.53826 7.72775 -18.2541 -6.55946 24.4247 -0.0150993 0.0712226 -0.0639163
43 1 9.33542 6.92824 12.1785 1.65584 -25.4894 -6.30789 0.000925145 0.0811674 0.053097
47 1 9.3488 2.95401 10.3697 -23.9466 2.04043 8.58686 0.0647959 0.000621294 0.00702954
48 1 4.8226 2.94161 10.3628 14.5325 -8.61451 5.40215 0.0408568 0.0225405 0.0344992
55 1 9.46972 1.49327 12.5167 0.0827482 6.15766 -14.6513 -0.036712 -0.00545144 0.00566914
56 1 4.89523 1.48289 12.5308 -11.9751 -1.32093 0.126259 -0.0393682 0.0222117 -0.037567
60 2 6.98726 4.71035 8.48953 -4.59325 -15.8156 3.72044 -0.0264572 0.0156623 -0.0395239
64 2 7.25908 0.635686 14.0669 7.91904 7.94459 -1.43577 0.0739347 -0.0206269 0.0649277
71 2 9.41842 0.345784 9.81922 5.52702 4.8176 -7.81789 0.0701074 -0.0352294 0.0931747
72 2 4.85213 0.33325 9.82503 -8.24874 0.0401202 2.11662 0.0513202 -0.0131467 0.0354313
ITEM: TIMESTEP
2
ITEM: NUMBER OF ATOMS
72
ITEM: BOX BOUNDS xy xz yz pp pp pp
-1.8281657117517777e-01 9.5810961603124483e+00 -1.8311095307284883e-01
-1.8771890671182720e-01 8.0295061087974453e+00 4.3955454221012141e-01
-8.0929641468596714e-04 1.5036671296414685e+01 -1.8637579791437939e-01
ITEM: ATOMS id type x y z vx vy vz fx fy fz
5 1 2.17475 4.02375 0.00663069 -11.7216 4.16182 3.09221 0.0398082 0.127847 -0.030344
7 1 2.34092 7.92452 7.51888 9.72049 -5.92502 0.999779 -0.140294 -0.0495421 0.0613133
9 1 2.41752 0.898538 5.3845 0.0712312 -0.807767 16.6592 0.041199 -0.0172141 -0.0820371
13 1 2.2263 4.93611 2.16736 -0.896792 -9.31743 -3.78781 0.0688158 0.0290501 -8.91305e-05
17 1 2.28515 1.91295 1.50661 0.129318 25.1133 -17.8673 0.00460735 -0.134097 0.0729555
21 1 2.37754 5.78621 5.96163 24.0478 -11.7364 -4.38089 -0.0725415 0.0434423 0.0915524
25 1 2.31565 3.28773 3.89156 -2.44428 4.24669 9.72451 0.130345 -0.0617036 0.00686932
29 1 2.1661 7.24093 3.64962 -26.9574 -22.6071 5.86749 0.12918 0.109371 0.0228806
36 1 4.4409 5.40793 0.158333 -0.967805 0.957253 -12.5479 0.0412203 -0.0135381 0.082306
40 1 4.73675 1.28445 7.32815 -7.33345 -10.7833 -5.50384 0.134692 -0.0227921 0.00181737
42 1 4.60791 0.920698 2.79925 -10.8412 15.5902 -23.9757 -0.0117765 -0.0502942 0.100018
45 1 0.103604 4.87607 4.66186 36.0713 -7.48168 -6.80183 -0.126369 0.0403232 0.0601747
46 1 4.58386 4.9075 4.6915 -4.38949 10.8344 11.9818 0.00514294 -0.036009 -0.0989619
49 1 0.107536 2.3112 5.0043 2.81263 -5.8343 -6.81817 -0.032218 -0.0653822 0.011572
53 1 -0.0468801 6.3239 2.51292 9.49303 -27.1806 11.1583 -0.0324022 -0.0166097 0.0338902
57 2 2.39885 3.12946 6.5594 1.28595 3.05801 1.5042 0.0339312 0.00673528 0.0460091
61 2 2.13396 7.19321 0.96494 -5.55227 -4.17671 -0.817195 -0.0645527 0.0946486 -0.0229066
65 2 -6.0257e-05 3.52548 2.30493 5.80399 2.77727 -3.76919 -0.0258428 -0.027672 0.0765617
66 2 4.53983 3.53577 2.30901 -5.53154 3.37622 -4.48387 0.0972074 0.0247402 0.00957959
70 2 4.54706 7.49799 5.20237 0.477733 -5.39017 -2.82686 -0.0665943 0.0799992 -0.0478262
2 1 4.83153 7.84914 15.0727 3.19843 4.68891 18.151 0.00574733 0.0177283 -0.0794268
3 1 0.095247 3.92969 7.53076 -20.4511 1.6535 -0.236905 0.154829 -0.0115689 -0.0345066
11 1 2.40165 6.9061 9.70418 2.29897 -14.3062 6.68032 0.0154526 0.0988278 -0.061353
15 1 2.57658 2.92035 12.894 -0.09159 11.1504 9.48442 0.0305353 -0.073232 -0.0461834
19 1 2.55221 6.03395 13.4664 1.05423 21.6322 -17.0046 -0.0591858 -0.126095 0.0752038
23 1 2.49641 2.011 9.08206 -2.18781 -13.0173 6.16168 -0.0569546 0.0837018 -0.0430976
27 1 2.49235 4.55279 11.1305 -7.26223 -9.50457 -9.06867 0.0204445 -0.0257909 0.0310562
31 1 2.61179 0.554816 11.3869 5.90493 7.26307 -7.05234 -0.00913175 0.0182808 0.0644341
38 1 4.60622 6.55515 7.68788 -18.9698 5.33963 -7.17082 -0.0130296 -0.0099638 -0.00601294
44 1 4.75126 6.92506 12.1754 -2.81499 -8.8461 -4.98418 0.0497691 0.0302718 0.0165083
51 1 0.148245 5.52939 10.036 -10.5186 -1.15913 8.78504 0.0637436 0.00282712 -0.0635244
52 1 4.77384 5.52963 9.96269 19.7553 3.17254 -24.2809 -0.115092 -0.0305715 0.0668277
59 2 2.40714 4.72355 8.47827 -8.71055 2.32056 2.84847 -0.0182737 -0.0504587 -0.0909674
63 2 2.68821 0.619503 14.0816 1.90464 -10.8375 -2.13654 0.0732649 0.106765 -0.0204056
67 2 0.267328 4.34735 12.7476 -3.35514 9.05156 8.75313 0.00789815 -0.0925436 -0.0934409
68 2 4.82524 4.33865 12.7398 -2.83121 11.5182 2.97661 0.0672059 -0.116712 -0.159063
1 1 9.14024 -0.0106033 0.00724017 0.0124442 -5.61907 -1.10731 0.0138263 0.0856571 -0.0693729
6 1 6.767 4.01949 0.0242705 -0.369514 3.62624 7.40491 0.00203096 0.00808457 0.0470734
8 1 6.88682 7.91293 7.54708 0.69622 -8.01404 18.4507 -0.0572064 -7.78453e-05 -0.0948931
10 1 7.00432 0.911808 5.37397 7.93803 6.01517 12.0105 -0.0299067 -0.100866 0.0315696
14 1 6.8108 4.97623 2.21743 3.76337 8.64448 25.0614 -0.0541081 -0.0247952 -0.100506
18 1 6.91016 1.83517 1.53036 27.0522 -4.42501 -11.159 -0.0595343 0.0268584 -0.00931113
22 1 6.91006 5.76588 5.98119 4.38248 -20.6147 -2.08645 0.047091 0.0562468 -0.036735
26 1 6.91494 3.27417 3.85074 9.28489 -2.38158 -12.556 0.0250236 -0.0497586 0.103003
30 1 6.82308 7.30422 3.63429 11.1614 3.67581 -2.69368 -0.104265 0.0175267 0.0385822
35 1 9.01132 5.44741 0.208571 -4.39507 17.3681 13.6965 0.0656465 -0.10566 -0.0873142
39 1 9.28231 1.31036 7.33515 -19.7474 4.24318 0.615736 0.191037 -0.0818216 -0.0369403
41 1 9.20323 0.843965 2.82142 1.25257 -26.2266 -14.5607 0.0537473 0.0918324 -0.00518158
50 1 4.70251 2.33972 5.03419 18.5201 7.81666 3.95513 -0.073609 -0.0685262 -0.0360053
54 1 4.48513 6.36068 2.49806 -9.39625 -3.46094 1.68758 0.0406757 -0.0246074 0.051644
58 2 6.98847 3.11869 6.56046 4.93746 2.89807 0.983301 -0.00886481 -0.056779 -0.0169472
62 2 6.71679 7.20166 0.952616 -1.36324 3.34432 -6.02221 -0.0687744 0.0381095 0.0158966
69 2 9.13009 7.48494 5.2219 6.44318 -3.98488 8.7778 -0.13907 0.0149181 -0.0474256
4 1 4.70855 3.90106 7.53205 1.99775 -9.43827 5.36593 -0.073678 0.0210948 -0.00266681
12 1 6.9675 6.94596 9.68176 -9.61704 -0.178475 -4.54904 0.0487372 -0.00637939 -0.0428384
16 1 7.18272 2.91289 12.8605 8.29363 9.99428 -1.86103 -0.0671488 0.0132757 -0.0286027
20 1 7.12958 5.97854 13.5175 13.7971 -3.07461 9.02832 -0.0581524 0.0259638 -0.0550258
24 1 7.09285 2.02319 9.03813 5.76104 2.6219 -12.7987 -0.0855452 0.00480486 0.0618297
28 1 7.0913 4.62267 11.1197 2.48688 28.3893 -21.1667 -0.129961 -0.0982856 0.186546
32 1 7.14876 0.520325 11.3995 -14.2803 -12.3225 6.03183 0.0693265 0.0632628 0.0412124
33 1 9.53518 2.47169 14.866 10.6869 23.0421 7.0595 -0.098356 -0.0705563 -0.101062
34 1 4.96133 2.44143 14.816 5.43836 2.22655 -10.4782 -0.0588996 0.0514276 0.0923575
37 1 9.17742 6.53265 7.75215 -18.2257 -6.44365 24.2904 0.053623 0.0943054 -0.126526
43 1 9.33631 6.90396 12.1726 1.65833 -25.2983 -6.2332 0.00064164 0.184408 0.0536619
47 1 9.32399 2.95615 10.3785 -23.8414 2.04247 8.57682 0.0873871 0.00347041 -0.0205092
48 1 4.83647 2.93311 10.3684 14.5868 -8.55508 5.45039 0.0346353 0.0601708 0.0355292
55 1 9.46857 1.49922 12.5024 0.0357511 6.12345 -14.6149 -0.0284415 -0.0423105 0.0450882
56 1 4.88223 1.48138 12.5313 -12.014 -1.29327 0.0806988 -0.0158534 0.0171224 -0.0279713
60 2 6.98216 4.695 8.49332 -4.60098 -15.7933 3.7105 -0.0257934 0.0924831 -0.0166013
64 2 7.26572 0.643268 14.066 7.93902 7.93313 -1.41273 0.0441674 -0.0348938 0.0685552
71 2 9.4229 0.350016 9.8116 5.53975 4.79958 -7.77739 0.00835933 -0.0643095 0.139033
72 2 4.84305 0.332705 9.82734 -8.22634 0.0336288 2.12245 0.080432 -0.0241639 -0.000528782
ITEM: TIMESTEP
3
ITEM: NUMBER OF ATOMS
72
ITEM: BOX BOUNDS xy xz yz pp pp pp
-1.8147629727241119e-01 9.5785705140396917e+00 -1.8211852727994512e-01
-1.8867483075424357e-01 8.0311820430606389e+00 4.3737674404722793e-01
-1.8464273167397849e-03 1.5037708427316739e+01 -1.8565578769360308e-01
ITEM: ATOMS id type x y z vx vy vz fx fy fz
5 1 2.16373 4.028 0.00866572 -11.6488 4.38267 3.03338 0.066707 0.192595 -0.0537655
7 1 2.35062 7.92059 7.51992 9.47613 -6.00785 1.10227 -0.213823 -0.0729872 0.0863242
9 1 2.41713 0.896703 5.40081 0.14364 -0.837355 16.5041 0.0594562 -0.0245631 -0.138105
13 1 2.22592 4.92731 2.16284 -0.780165 -9.26045 -3.7836 0.0982345 0.0472856 0.00548498
17 1 2.28548 1.93717 1.48797 0.124597 24.8774 -17.7368 -0.00342203 -0.192275 0.11169
21 1 2.40157 5.77556 5.9571 23.9135 -11.6493 -4.22504 -0.125086 0.0747213 0.131929
25 1 2.31332 3.29184 3.90079 -2.23462 4.1448 9.7169 0.170387 -0.0817302 -0.0161227
29 1 2.13978 7.21994 3.65497 -26.7251 -22.4101 5.90695 0.203548 0.16144 0.0349131
36 1 4.44061 5.40946 0.144827 -0.919622 0.947207 -12.4062 0.0309297 -0.00132081 0.119424
40 1 4.72862 1.2729 7.32262 -7.13049 -10.7954 -5.49517 0.157515 -0.00116185 0.00970509
42 1 4.59678 0.935111 2.77469 -10.8584 15.4883 -23.7966 -0.00388135 -0.0892011 0.153504
45 1 0.139864 4.86922 4.65471 35.8709 -7.4155 -6.67926 -0.166723 0.0500996 0.115005
46 1 4.57941 4.91893 4.70303 -4.36699 10.7462 11.8131 0.0272996 -0.0837536 -0.141603
49 1 0.110241 2.30487 4.99714 2.76829 -5.93024 -6.80555 -0.0316054 -0.0765546 0.00539001
53 1 -0.0366421 6.29781 2.52341 9.43616 -27.1691 11.1966 -0.0577158 0.0184395 0.0232841
57 2 2.39976 3.1325 6.56078 1.29335 3.06114 1.52301 0.00933784 0.0190794 0.064554
61 2 2.12932 7.19043 0.963215 -5.57293 -4.13977 -0.821629 -0.0549546 0.110459 -0.00347898
65 2 0.0061916 3.52818 2.30045 5.79332 2.76281 -3.73822 -0.0343971 -0.0512287 0.101109
66 2 4.53442 3.53908 2.30381 -5.49468 3.38752 -4.47899 0.126493 0.0475464 0.015716
70 2 4.54771 7.49434 5.19922 0.45594 -5.35273 -2.84275 -0.062017 0.124569 -0.0466615
2 1 4.83354 7.85625 15.0918 3.20459 4.71347 18.0099 -0.000171877 0.0216943 -0.12045
3 1 0.0746604 3.9317 7.5305 -20.1617 1.63864 -0.289491 0.264555 -0.00889525 -0.0411977
11 1 2.4036 6.89358 9.71112 2.31452 -14.1392 6.60039 0.00276782 0.133812 -0.0524836
15 1 2.57519 2.93167 12.9042 -0.0492969 11.0254 9.41272 0.0303495 -0.0994839 -0.0553345
19 1 2.55221 6.05705 13.4503 0.962443 21.4047 -16.8724 -0.0657958 -0.190168 0.112083
23 1 2.4933 1.99769 9.0884 -2.2705 -12.8704 6.08956 -0.0652214 0.120621 -0.0595949
27 1 2.48424 4.54408 11.1219 -7.21578 -9.54054 -9.01606 0.0475288 -0.0321319 0.0430702
31 1 2.6163 0.561252 11.3804 5.8704 7.27914 -6.94951 -0.03865 0.00849154 0.0823041
38 1 4.58695 6.56195 7.68073 -18.9626 5.30497 -7.17897 0.0284214 -0.0373839 -0.00696302
44 1 4.74759 6.9181 12.171 -2.73963 -8.78984 -4.96437 0.0584923 0.0452165 0.011142
51 1 0.137365 5.5294 10.0451 -10.4008 -1.15824 8.67657 0.105198 -0.0015357 -0.0910159
52 1 4.79277 5.53395 9.93879 19.5438 3.11063 -24.1599 -0.186415 -0.058545 0.10304
59 2 2.39797 4.72661 8.48123 -8.71594 2.29498 2.80727 -0.00903379 -0.0922129 -0.146914
63 2 2.68836 0.608014 14.0803 1.93118 -10.7842 -2.14455 0.074267 0.177264 -0.02772
67 2 0.263033 4.3572 12.7571 -3.34905 9.00947 8.71811 0.0286189 -0.128789 -0.104315
68 2 4.82113 4.35096 12.7434 -2.80598 11.4634 2.91472 0.0869806 -0.17491 -0.19918
1 1 9.13991 -0.0178423 0.00504862 0.0348716 -5.47012 -1.2207 0.0177027 0.125362 -0.0939804
6 1 6.76695 4.02312 0.0306745 -0.364733 3.64073 7.48768 0.00402135 0.0154259 0.0733017
8 1 6.8872 7.90695 7.56547 0.601549 -8.01406 18.277 -0.0842219 -0.00316832 -0.151837
10 1 7.01141 0.916744 5.3857 7.88642 5.83563 12.0487 -0.0468062 -0.153122 0.0254704
14 1 6.81465 4.98538 2.24169 3.66857 8.60912 24.8744 -0.08634 -0.0192078 -0.164166
18 1 6.937 1.82994 1.51837 26.9465 -4.3785 -11.1596 -0.0946265 0.0366824 0.00651894
22 1 6.91415 5.74635 5.97887 4.45704 -20.4931 -2.13948 0.0564066 0.106677 -0.0399338
26 1 6.92392 3.27165 3.83775 9.31395 -2.46502 -12.3896 0.0176354 -0.0726316 0.134128
30 1 6.83437 7.30948 3.63109 10.9955 3.71596 -2.6218 -0.134722 0.0421571 0.0643799
35 1 9.00727 5.46531 0.221199 -4.29969 17.1936 13.5435 0.0724312 -0.134473 -0.130542
39 1 9.26146 1.31381 7.33571 -19.4454 4.11741 0.5564 0.24671 -0.0966745 -0.0483281
41 1 9.20387 0.816629 2.80621 1.34709 -26.0648 -14.5625 0.0804397 0.124874 2.13055e-05
50 1 4.72054 2.34706 5.03778 18.3982 7.71097 3.89172 -0.103627 -0.0787666 -0.0545502
54 1 4.47619 6.35831 2.49909 -9.33533 -3.48309 1.75876 0.0472652 -0.00912966 0.0510568
58 2 6.99268 3.12156 6.56131 4.92828 2.86769 0.969281 -0.0460383 -0.113068 -0.0639869
62 2 6.716 7.20639 0.945691 -1.38495 3.35318 -6.00808 -0.0495673 0.0193831 0.0621314
69 2 9.13634 7.48268 5.23035 6.39123 -3.9816 8.75925 -0.176872 -0.00239309 -0.0544437
4 1 4.7099 3.89199 7.53741 1.87705 -9.40052 5.36432 -0.102983 0.0281947 0.00127385
12 1 6.95721 6.94751 9.67748 -9.52975 -0.177134 -4.59288 0.0790425 0.00785798 -0.0210305
16 1 7.18931 2.92312 12.8594 8.17689 10.0136 -1.91492 -0.0997716 0.0200633 -0.0492627
20 1 7.14197 5.97702 13.5274 13.7012 -3.02839 8.93051 -0.0840358 0.0394676 -0.0841313
24 1 7.09733 2.02547 9.02559 5.62661 2.61152 -12.6875 -0.105596 -0.0192115 0.0958811
28 1 7.0925 4.65183 11.0991 2.27963 28.2019 -20.8286 -0.159324 -0.156734 0.296373
32 1 7.13278 0.507193 11.4061 -14.1629 -12.2195 6.07924 0.0981946 0.0783396 0.0280443
33 1 9.54363 2.49483 14.874 10.5237 22.8913 6.87918 -0.135225 -0.132753 -0.157167
34 1 4.96491 2.44382 14.8066 5.35274 2.30459 -10.337 -0.0625027 0.0613624 0.109014
37 1 9.15858 6.52773 7.77639 -18.1027 -6.2968 24.0691 0.11968 0.115147 -0.18767
43 1 9.33672 6.88064 12.167 1.6611 -24.9588 -6.15724 -3.13627e-05 0.289189 0.0545421
47 1 9.29874 2.9583 10.3875 -23.7067 2.04823 8.52806 0.108312 0.00665161 -0.0481642
48 1 4.84995 2.92469 10.3743 14.6342 -8.4425 5.4993 0.0290263 0.0973373 0.035788
55 1 9.46663 1.50493 12.4885 -0.000374513 6.03856 -14.5236 -0.0195135 -0.0774314 0.0837718
56 1 4.8686 1.47971 12.532 -12.0211 -1.27314 0.0487637 0.00698064 0.0110985 -0.0179645
60 2 6.97675 4.67996 8.49716 -4.6074 -15.7426 3.70781 -0.0233204 0.166978 0.00351555
64 2 7.27155 0.650535 14.0655 7.94876 7.91562 -1.38858 0.0149666 -0.0490071 0.0710555
71 2 9.42673 0.353796 9.80416 5.53117 4.77112 -7.72114 -0.0515714 -0.0926568 0.182968
72 2 4.83347 0.33172 9.82978 -8.19415 0.0231156 2.11578 0.109707 -0.0363215 -0.0368441
ITEM: TIMESTEP
4
ITEM: NUMBER OF ATOMS
72
ITEM: BOX BOUNDS xy xz yz pp pp pp
-1.7963892347466370e-01 9.5751327175152312e+00 -1.8073717183561222e-01
-1.9010961976702775e-01 8.0335294030795783e+00 4.3439496587618315e-01
-3.3315377933433865e-03 1.5039193537793341e+01 -1.8474321668744695e-01
ITEM: ATOMS id type x y z vx vy vz fx fy fz
5 1 2.15305 4.03253 0.0101787 -11.5391 4.69327 2.94193 0.0938762 0.258055 -0.0771813
7 1 2.36006 7.91733 7.52108 9.13122 -6.12141 1.23948 -0.286267 -0.0949201 0.11134
9 1 2.41664 0.894394 5.4168 0.240463 -0.876608 16.2719 0.0750401 -0.0309693 -0.192565
13 1 2.22586 4.91876 2.158 -0.622514 -9.17644 -3.77117 0.127542 0.0661649 0.011613
17 1 2.28587 1.9608 1.46912 0.107251 24.5577 -17.5527 -0.0106201 -0.250471 0.14961
21 1 2.42544 5.76539 5.95266 23.7075 -11.5177 -4.01426 -0.178137 0.105371 0.170474
25 1 2.31123 3.29577 3.90978 -1.96885 4.01405 9.67596 0.210749 -0.102327 -0.0407597
29 1 2.11396 7.19976 3.66014 -26.3884 -22.1393 5.96176 0.279643 0.211745 0.0451856
36 1 4.44062 5.41124 0.131048 -0.886496 0.954978 -12.2122 0.0205834 0.0120271 0.157048
40 1 4.72038 1.261 7.31709 -6.89622 -10.7753 -5.4755 0.179968 0.0212643 0.017443
42 1 4.58553 0.948927 2.75007 -10.8661 15.3324 -23.5437 0.00559027 -0.125579 0.205448
45 1 0.175988 4.86266 4.64754 35.6156 -7.33583 -6.47852 -0.20832 0.0582365 0.172442
46 1 4.57499 4.93047 4.71419 -4.31257 10.5897 11.5854 0.0512952 -0.13215 -0.1836
49 1 0.112858 2.29823 4.98984 2.72505 -6.03998 -6.80094 -0.030777 -0.0865746 -0.000175855
53 1 -0.0262051 6.27216 2.53363 9.34605 -27.1052 11.2197 -0.0837339 0.0538087 0.0121803
57 2 2.40054 3.13549 6.56213 1.29253 3.06794 1.54799 -0.0139232 0.0305949 0.0821457
61 2 2.12501 7.18823 0.961098 -5.59023 -4.09712 -0.819376 -0.0439636 0.124768 0.0158989
65 2 0.0125888 3.5308 2.2957 5.77974 2.74014 -3.69877 -0.0428769 -0.0737128 0.125435
66 2 4.52911 3.54235 2.29831 -5.44876 3.40647 -4.47208 0.154058 0.071565 0.0206853
70 2 4.54842 7.4914 5.19591 0.435961 -5.29932 -2.85763 -0.0567444 0.168751 -0.0423789
2 1 4.83514 7.86424 15.1113 3.20192 4.74178 17.8111 -0.00819479 0.0244047 -0.161911
3 1 0.0543426 3.9338 7.53019 -19.7202 1.62811 -0.350772 0.375471 -0.00503054 -0.0470381
11 1 2.40543 6.88188 9.71812 2.31428 -13.9218 6.53342 -0.008871 0.168846 -0.0425092
15 1 2.57337 2.94287 12.9147 -0.00713499 10.8637 9.32686 0.0303836 -0.123886 -0.0662421
19 1 2.55176 6.08043 13.4347 0.859879 21.0855 -16.69 -0.0721165 -0.254462 0.146823
23 1 2.48978 1.98434 9.09476 -2.36288 -12.6714 5.99372 -0.0719842 0.156503 -0.0770443
27 1 2.47589 4.53558 11.1136 -7.13374 -9.58432 -8.94518 0.0722291 -0.0390546 0.0570223
31 1 2.62023 0.567292 11.3743 5.79412 7.28013 -6.82166 -0.0686737 -0.00216674 0.100206
38 1 4.56764 6.56924 7.67358 -18.8988 5.23146 -7.18704 0.0707586 -0.0650593 -0.00615308
44 1 4.74369 6.91186 12.167 -2.65223 -8.71107 -4.95309 0.0670824 0.0609372 0.00405138
51 1 0.126476 5.52981 10.0542 -10.2242 -1.16407 8.52899 0.148483 -0.00690332 -0.119518
52 1 4.81118 5.53858 9.91518 19.2322 3.01211 -23.9895 -0.25871 -0.0832078 0.137215
59 2 2.38863 4.72988 8.4842 -8.71863 2.25496 2.74664 0.000215652 -0.132608 -0.203736
63 2 2.68788 0.596226 14.0795 1.95858 -10.7052 -2.15454 0.0753441 0.248804 -0.0322831
67 2 0.258392 4.36725 12.7668 -3.33585 8.95261 8.67947 0.0503064 -0.17101 -0.113276
68 2 4.81659 4.36345 12.7473 -2.77489 11.3868 2.83928 0.10455 -0.234576 -0.237575
1 1 9.1395 -0.0255809 0.00227881 0.0629415 -5.26657 -1.3684 0.021722 0.163262 -0.118785
6 1 6.76704 4.02678 0.0367346 -0.35692 3.6643 7.60582 0.00609265 0.0220039 0.0982413
8 1 6.88739 7.90172 7.58365 0.471067 -8.01646 18.0238 -0.110631 -0.00463498 -0.20869
10 1 7.01813 0.921029 5.39735 7.81227 5.58374 12.0772 -0.0635575 -0.203737 0.0179971
14 1 6.81845 4.99469 2.26541 3.53004 8.58087 24.6008 -0.118538 -0.0124541 -0.224367
18 1 6.96366 1.82441 1.50603 26.7945 -4.31809 -11.138 -0.127898 0.0458105 0.022203